# vtk DataFile Version 2.0 
spherical quadrilaterals
ASCII
DATASET POLYDATA
POINTS 24576 double 
0.5852684247544553964  -0.5733501857440348459  0.5733501857440348459
0.5931414259513526632  -0.5809461561051773026  0.5573910768275851524
0.6014801634128170704  -0.564898934775456496  0.564898934775456496
0.5931414259513525522  -0.5573910768275851524  0.5809461561051773026
0.6007924371237898242  -0.588324855305511818  0.5412229781934666528
0.6082185807845001957  -0.5954835094156728514  0.5248519295977511767
0.6174633174948678249  -0.5792631227635354207  0.5321590797444589738
0.6095885056616665576  -0.5721905565117116899  0.5486345056629177153
0.6181454686983871571  -0.5558309902873584951  0.5558309902873584951
0.6264599394154248824  -0.5628095832366625251  0.5392525543051198689
0.6352048162100453199  -0.5461294908094428413  0.5461294908094427303
0.6264599394154248824  -0.5392525543051198689  0.5628095832366625251
0.6007924371237898242  -0.5412229781934665418  0.588324855305511818
0.6095885056616665576  -0.5486345056629176042  0.5721905565117116899
0.6174633174948678249  -0.5321590797444589738  0.5792631227635354207
0.6082185807845001957  -0.5248519295977511767  0.5954835094156728514
0.6154171933047841714  -0.6024199614983073436  0.508283255845832227
0.6223855323314041454  -0.6091315701500789048  0.49152312192922748
0.6325014190015268989  -0.5927450044129456419  0.4985933360009458526
0.6251019745928527716  -0.5861155209965174251  0.5154765924919360032
0.6291208279353931454  -0.6156152713569594814  0.4745785725567288615
0.6356205432359981478  -0.6218686240853971148  0.4574559425720796657
0.6465699265572573129  -0.6053201096624714062  0.46425735848767824
0.6396583280978822561  -0.5991473615775164685  0.481518081082863203
0.6499208252325041624  -0.5824209538539460995  0.4882507075683151787
0.6572349342427655783  -0.5885049363039925874  0.4708547346653117471
0.6676108573135772772  -0.5714304883230574283  0.4772451573477750619
0.6599038707150453043  -0.5654432190064972996  0.4947735315221207797
0.6345297071678333012  -0.5695696454868652836  0.5224581032594578511
0.6423514144766770961  -0.5761083545756849889  0.5054540771503472918
0.651931342671034586  -0.5592285942292155587  0.5121024349088351135
0.6436964973228705977  -0.5527891275821701367  0.529224904706128596
0.6526006618443762619  -0.5357762481485541795  0.5357762481485539574
0.6612383045050839181  -0.5421092480208479225  0.5185378171990087104
0.6702681796623694011  -0.5247573569432323337  0.5247573569432321117
0.6612383045050840291  -0.5185378171990088214  0.5421092480208477005
0.6696036711318346102  -0.5482191822375467316  0.5010854735806711258
0.677693299554361861  -0.5541035218179164445  0.4834263944470800212
0.687477770282727163  -0.5365316171107258336  0.4893956877697630548
0.6790159078169252238  -0.5307561410105251509  0.5071837100214994232
0.6881359196844348824  -0.5130638147638444391  0.5130638147638444391
0.6969597441963094608  -0.5187232304908010461  0.4951498006856129286
0.706135030170448208  -0.5006861887281194301  0.5006861887281194301
0.6969597441963094608  -0.4951498006856130396  0.5187232304908010461
0.6696036711318344992  -0.5010854735806711258  0.5482191822375467316
0.6790159078169253348  -0.5071837100214994232  0.5307561410105251509
0.687477770282727163  -0.4893956877697629992  0.5365316171107258336
0.6776932995543617499  -0.4834263944470800212  0.5541035218179163335
0.6154171933047841714  -0.508283255845832227  0.6024199614983073436
0.6251019745928527716  -0.5154765924919360032  0.5861155209965174251
0.6325014190015268989  -0.4985933360009458526  0.5927450044129455309
0.6223855323314040344  -0.4915231219292274245  0.6091315701500789048
0.6345297071678333012  -0.5224581032594577401  0.5695696454868652836
0.6436964973228705977  -0.5292249047061287071  0.5527891275821700257
0.651931342671034475  -0.5121024349088351135  0.5592285942292153367
0.6423514144766769851  -0.5054540771503472918  0.5761083545756848778
0.6499208252325040513  -0.4882507075683152342  0.5824209538539459885
0.6599038707150453043  -0.4947735315221208352  0.5654432190064972996
0.6676108573135772772  -0.4772451573477751174  0.5714304883230574283
0.6572349342427656893  -0.4708547346653118582  0.5885049363039925874
0.6291208279353932564  -0.4745785725567289171  0.6156152713569594814
0.6396583280978822561  -0.4815180810828632585  0.5991473615775164685
0.6465699265572573129  -0.46425735848767824  0.6053201096624714062
0.6356205432359980367  -0.4574559425720796657  0.6218686240853970038
0.641882660259627591  -0.6278917667327977847  0.4401574487921218193
0.6479046424434649065  -0.6336822602963350093  0.4226894454394783396
0.65965030439717387  -0.6169895564091273377  0.4291682224848246685
0.6532349602612050887  -0.6112684444842856335  0.4468052992862815986
0.6536837136208324406  -0.6392353796074567995  0.40506262726273351
0.659217692241077069  -0.644549029465636969  0.3872835948646082271
0.6717171536638556484  -0.6277180337676490085  0.3934032734441909596
0.6658118359506925987  -0.6224734653067128809  0.4113652684622518541
0.6776289000748894065  -0.6054196897229349172  0.4174758353235317743
0.6838963920494456339  -0.6105872993203684818  0.3993355416819414638
0.6957495786874471344  -0.5931649809807049145  0.4050775593567232935
0.6891293397933478948  -0.5880819975784615794  0.4233914467252625768
0.6642938447188138085  -0.5943700735206555175  0.4532525825318010071
0.6710938470459432148  -0.6000132272303854153  0.4354505432372934859
0.6822299851346866895  -0.5827610254196561312  0.4415335034116393831
0.6750543251629179675  -0.5772042325002336716  0.4594963896078548826
0.664504447288128075  -0.6496217047841139625  0.3693582004067068048
0.6695419474068370347  -0.6544514573597246532  0.3512931405854557987
0.682749664543894963  -0.6374855318030959728  0.3570225375335887574
0.6773638657561624754  -0.6327227393131794608  0.3752867284142803461
0.6743283096182748348  -0.6590359551266216087  0.3330959932177234295
0.6788617238995700021  -0.6633734653367373557  0.3147735778480024171
0.6927303353175207068  -0.6462733666312771019  0.3200865790906424757
0.6878724888112531799  -0.6420029965915708958  0.3386201286162059398
0.7010703827626008078  -0.6246457197912316239  0.3439738989510608969
0.706243791019042555  -0.6288414041271909172  0.3252356009147736593
0.7193951367722921653  -0.611086503412269777  0.3302179924470214911
0.7139152951982674633  -0.6069728387793320579  0.3491545850567190357
0.6898942126242462169  -0.6155158703886836058  0.3810330545861247975
0.6956197946227596907  -0.6202032808602851999  0.3625754979850784321
0.7081459230327189491  -0.6026132259510852407  0.3679492513934016773
0.7020893759516182442  -0.5980094457811568898  0.3865943751949592055
0.7139465085908732744  -0.5802069034491127431  0.3919698101396255074
0.7203237860185284225  -0.5847202722520198348  0.3731431984017091752
0.7321470871792133961  -0.5665330693778408699  0.3781546297962196101
0.725459531021174775  -0.5621166468131923999  0.3971565739428592479
0.7264017877688623281  -0.5889908958647201986  0.3541612165591754846
0.73217797138497831  -0.5930169871380079893  0.3350317465320824528
0.7445856677331477158  -0.5746420722244718338  0.3396743620527569729
0.7385233814226886961  -0.5707088116687747403  0.3589911800805320463
0.7502727688221413338  -0.552138103017123294  0.3636403271924195102
0.7566114442018223585  -0.5559719425618702138  0.3441428796107996457
0.7682491069067500788  -0.537016166460179023  0.3484349963729163058
0.7616439777802294087  -0.5332881108558288341  0.3681062916209538738
0.7366196083939080541  -0.5437524552614122486  0.4021502454640445423
0.743607845452515015  -0.5480643415756529802  0.3829789154440678134
0.7547003363498259176  -0.5293232155311448084  0.3876136424498354272
0.7474212870984446866  -0.5251232549044309028  0.4069483833985342303
0.6855118512943718656  -0.5597777977971526431  0.465534444298521255
0.6930545183065766057  -0.565238379228235166  0.4474159242832970174
0.7035623113761001468  -0.5474531903130696042  0.4530949993402725307
0.695661660212564259  -0.5420985534490853075  0.4713639918987321265
0.7003096147989215092  -0.5704646037938688741  0.4291113832543834161
0.7072741124638489696  -0.5754542896079314351  0.410628409161258201
0.718464187126766074  -0.5574634257461493769  0.4159852650895731196
0.7111642418538797195  -0.5525755485205890993  0.4346328154725163095
0.7216861355667008038  -0.5344270029413804579  0.4399510202941859238
0.7293112626428803758  -0.5392059800710597983  0.4211436729168034354
0.739810137867263462  -0.5206906598456412238  0.4261011577763329505
0.7318703279268293782  -0.5160274399960101954  0.4450634834171854348
0.7054988412613553139  -0.5241752531075558608  0.476981853961463198
0.713747499649929118  -0.5294160260829440245  0.4585664380109146232
0.7236053691091318685  -0.5111351387696202453  0.4638277047691284904
0.7150189524291592491  -0.506015942395687035  0.4823854928462426583
0.7242374225365785234  -0.4875859697517830882  0.4875859697517830882
0.7331478199901582116  -0.4925794078023343903  0.4688920995845209383
0.7423682940682535536  -0.4737559054841379291  0.4737559054841378181
0.7331478199901582116  -0.4688920995845209938  0.4925794078023343348
0.7417255929296401318  -0.4973495190895778628  0.4499851115920829869
0.7499668293195649316  -0.5018941270031029855  0.4308735779786823095
0.7597746518776274938  -0.4828241465457667747  0.4354576005497917124
0.7512452876223076892  -0.4784006459067037254  0.4547123704291812785
0.7604106149749576549  -0.4592252696843929782  0.4592252696843929227
0.7692172088571942457  -0.4635216559500093259  0.4398324227058628688
0.7782899389769402099  -0.4439959295349849011  0.4439959295349849011
0.7692172088571942457  -0.4398324227058629243  0.4635216559500092703
0.7417255929296402428  -0.4499851115920829869  0.4973495190895778628
0.7512452876223076892  -0.454712370429181334  0.4784006459067037254
0.7597746518776274938  -0.4354576005497917124  0.4828241465457666637
0.7499668293195649316  -0.4308735779786823095  0.5018941270031030966
[...]
POINT_DATA 24576
SCALARS area double 1
LOOKUP_TABLE default
0.0003279776974427577561
0.0003354856703183619108
0.0003429346216149281308
0.0003354856703183619108
0.0003428719094337380783
0.0003501207479968520544
0.0003574654363295070919
0.0003502750440187020302
0.0003575571674982408552
0.0003646767289732998855
0.0003717388223384997421
0.0003646767289733019997
0.0003428719094337406262
0.0003502750440187034939
0.0003574654363295063329
0.0003501207479968504823
0.0003572602741593072675
0.0003642170012856570864
0.0003715170290574103143
0.0003646178116187145327
0.0003710416121547910643
0.0003777170795144572089
0.0003849185901354397997
0.0003782992861998448744
0.0003854121086385636015
0.0003919619766514723385
0.0003988300062485911372
0.0003923346465982072021
0.0003718293910153716185
0.0003786859002256424815
0.0003856782317333812661
0.0003788779154941381922
0.0003859621235465321648
0.0003926648733395166242
0.0003993130400280047723
0.0003926648733395182505
0.0003992102190731654189
0.0004055801443494604476
0.0004121374920833603076
0.0004058201373114635646
0.0004122747665844751145
0.0004185253893878954578
0.0004247257006973174259
0.0004185253893878952409
0.0003992102190731666115
0.0004058201373114624262
0.0004121374920833620966
0.0004055801443494629955
0.0003572602741593072133
0.0003646178116187145327
0.000371517029057411019
0.0003642170012856565985
0.000371829391015372269
0.0003788779154941383006
0.0003856782317333825672
0.0003786859002256435115
0.0003854121086385620836
0.0003923346465982073105
0.0003988300062485924382
0.0003919619766514710916
0.0003710416121547887875
0.0003782992861998442781
0.0003849185901354392034
0.0003777170795144578594
0.0003843602574755406029
0.0003906319632880811453
0.0003980603998862332783
0.0003918431560072878263
0.0003967610981603624117
0.0004027304604314154487
0.0004100684040874347149
0.0004041511585917859171
0.0004113732834295858788
0.0004172231508501180277
0.0004241750061170134682
0.0004183752853204220925
0.0003991549362573952142
0.0004053348537585109153
0.0004124031858447916926
0.0004062760339251347938
0.0004085695240699933049
0.0004141980051740788921
0.0004215138297017244134
0.0004159347892779203301
0.0004196748863250701752
0.0004249827429384738344
0.0004322196430498970393
0.0004269581737416697741
0.0004340489456099924106
0.0004392478280851900771
0.0004460462746458796791
0.0004408914162213457507
0.0004231032331358281656
0.0004286513402354744508
0.0004355547975071182845
0.0004300539566700676652
0.0004370277677784191721
0.0004424316607825568926
0.0004488824711897615276
0.0004435233941648777413
0.0004476556542340855084
0.0004526815205367814014
0.000459063856352688311
0.0004540794072387750106
0.0004602968380788008147
0.0004652237403944282901
0.000471140406422858142
0.0004662520399753984331
0.0004498082840625909412
0.0004551415580152555831
0.000461153054439403839
0.0004558617765973039387
0.0004132408994306687724
0.0004194016606900149774
0.000426071150514013776
0.0004199610763066090346
0.0004253926532934597165
0.0004311952033199882811
0.0004377837312586926161
0.0004320290556203452504
0.0004384848747809335615
0.0004441761027490522787
0.0004503523186257576147
0.0004447062899018490076
0.0004264973288667691233
0.0004325749155311323741
0.000438859179258048503
0.0004328297760450286122
0.0004409041376535346134
0.0004467135124616329199
0.0004524770151234471568
0.0004467135124616333536
0.0004523245982507887938
0.0004577182726349628616
0.0004634112097042749939
0.0004580603390889858282
0.0004636008995854371678
0.0004688939692698171433
0.0004741473354625065271
0.0004688939692698174144
0.0004523245982507900949
0.0004580603390889883219
0.0004634112097042750482
0.00045771827263496091
0.0004629259032249567318
0.0004678631167523995805
0.0004735575100688552553
0.0004686597305049766725
0.0004725914324951260457
0.0004770932531116983699
0.000482729784805458785
0.0004782636934808952517
0.0004837168744607829476
0.000488131175147549451
0.0004932770670664768028
0.0004888955158817396033
0.0004741692854858407845
0.0004790467354997523641
0.000484275364662680851
0.0004794342915694114549
0.0004846857109275700673
0.0004894430629440001601
0.0004941672868846274909
0.0004894430629440003769
0.0004939645748248225636
0.0004982321980707461479
0.0005029112511942434487
0.0004986732506554715722
0.0005031495628655172601
0.0005073437831840226777
0.0005115116813264200622
0.0005073437831840213767
0.0004939645748248228888
0.0004986732506554718974
0.0005029112511942413887
0.000498232198070745389
0.0004629259032249545091
0.0004686597305049771062
0.000473557510068855689
0.0004678631167523982252
0.0004741692854858409471
0.0004794342915694126475
0.0004842753646626815015
0.0004790467354997514967
0.0004837168744607830018
0.000488895515881738736
0.0004932770670664782123
0.0004881311751475497221
0.0004725914324951284852
0.0004782636934808953601
0.0004827297848054577551
0.0004770932531116987493
0.0003843602574755413076
0.0003918431560072894526
0.0003980603998862326277
0.0003906319632880806032
0.0003991549362573934795
0.0004062760339251373417
0.000412403185844791801
0.0004053348537585088011
0.0004113732834295837646
0.0004183752853204206288
0.0004241750061170148235
0.0004172231508501191119
0.0003967610981603631706
0.0004041511585917851039
0.0004100684040874351486
0.0004027304604314163703
0.0004132408994306698566
0.0004199610763066071372
0.0004260711505140112282
0.0004194016606900121042
0.0004264973288667663585
0.0004328297760450282869
0.0004388591792580498582
0.0004325749155311353015
0.0004384848747809333988
0.0004447062899018506339
0.0004503523186257616263
0.0004441761027490517908
0.0004253926532934573313
0.0004320290556203449251
0.0004377837312586942966
0.0004311952033199851911
0.0004370277677784183048
0.0004435233941648777413
0.0004488824711897606602
0.0004424316607825566757
0.0004498082840625886644
0.0004558617765973074082
0.0004611530544394031343
0.0004551415580152539568
0.0004602968380788032541
0.0004662520399753985415
0.0004711404064228588468
0.0004652237403944295912
0.0004476556542340862674
0.0004540794072387749022
0.0004590638563526923226
0.0004526815205367821062
0.0004085695240699929254
0.0004159347892779198964
0.0004215138297017257145
0.0004141980051740782416
0.0004231032331358265393
0.0004300539566700672858
0.0004355547975071174171
0.0004286513402354748302
0.0004340489456099916516
0.0004408914162213476481
0.0004460462746458810886
0.000439247828085189535
0.0004196748863250684405
0.0004269581737416715088
0.0004322196430499011051
0.0004249827429384747559
0.0004305298157870577225
0.0004349184141529709906
0.0004434632160039091013
0.0004391175953210910794
0.0004391436932739480894
0.0004431922796381638835
0.0004516703833079960652
0.0004476597978261943151
0.000455969604228436895
0.0004599196550002541614
0.0004679122890343514812
0.000463998687097149276
0.0004474860782704794307
0.0004518127447586695608
0.0004598926142531720293
0.0004556075621137137743
0.000447075858745792044
0.0004507336342976546928
0.0004592029470638823128
0.0004555779248505583117
0.0004542214732851603443
0.0004575268878024972997
0.0004659502108687522243
0.0004626719928622595869
0.0004708982817193654771
0.0004741259410431901411
0.0004820251569716267441
0.0004788228884847797306
0.00046384089054178813
0.0004674583014330494423
0.0004754222847517415303
0.0004718359369800969021
0.0004799112020525132501
0.0004833958053558086963
0.0004908202290908329941
0.0004873648052630220667
0.0004866731510462889414
0.0004897303523479086236
0.000497116495868281578
0.0004940827456564145063
0.0005012500162747197041
0.000504237157583502715
0.0005110640712484347623
0.0005080982863302188797
0.0004945611703482250248
0.0004980127230030833348
0.0005048966430957341212
0.0005014721158775582938
0.0004635401080461186798
0.0004679042515815917116
0.0004754839907033773139
0.0004711597405560497714
0.0004720689657870418866
0.0004760194314245670753
0.0004835403043408164053
0.0004796244794876245192
0.0004869563626874000013
0.0004908149807549935014
0.0004978158413036421794
0.0004939897100811373523
0.0004785429503817084846
0.0004828520382364942434
0.0004899335253031491914
0.0004856622125354232203
0.0004606576710190586274
0.000463379619982696566
0.0004719901677041141446
0.0004692896806585866894
0.0004659253189190171261
0.0004682846462968603398
0.0004768707245506039827
0.00047452666823602751
0.0004828899117483796666
0.0004851938238475449541
0.0004932233186228813246
0.0004909329815377268778
0.0004776653245933073122
0.0004803709155509854859
0.0004884398301502857701
0.0004857540694553510552
0.0004704580947422662657
0.0004724013790088653136
0.0004810098846870840229
0.0004790755377013740162
0.0004741640409998088088
0.0004757377441133885847
0.000484345815661801622
0.0004827745410449096625
0.0004911351642062918672
0.0004926785833904526743
0.0005007046980287502887
0.0004991619548823919344
0.0004874226831328909632
0.0004893752918457511345
0.0004974136787581967187
0.0004954682738646204281
0.0005035922695491698488
0.0005054538866576543076
0.0005128935750057885858
0.000511037323271305334
0.000507095345287964178
0.0005085082787292802883
0.0005159545871070686908
0.0005145405608033236638
0.0005217154707455103502
0.0005231058720225978485
0.000529932186166695335
0.0005285389079024069552
0.0005181921601956401748
0.0005200696611932810725
0.0005269010072527393999
0.0005250269120789641643
0.0004936222822132399577
0.0004964187226338142135
0.0005039144506719293003
0.0005011359237936539781
0.0004990004670485662574
0.0005013561396391560347
0.0005088356435458426088
0.0005064916615739383995
0.0005137247876840670769
0.0005160328225532943933
0.0005229181136311130199
0.0005206196647350096011
0.0005083742095085650326
0.0005111612688707175677
0.0005180790297605406686
0.0005153076641485717551
0.0005248881240242995582
0.0005273841010938833639
0.0005336624250329348061
0.0005311800734964225099
0.0005296261654237997135
0.0005316037100293767234
0.0005378731531244440242
0.0005359033423858735679
0.0005418995167470497558
0.000543839254538853816
0.0005494751200329089664
0.0005475411213974412748
0.0005371749389317199887
0.0005396681796620430389
0.0005453278225399824878
0.0005428458906875156288
0.0005333170793399398405
0.0005347265063303697922
0.0005410284153836511251
0.0005396207302397711993
0.0005358763738703806352
0.0005367604491791264608
0.0005430737235000971091
0.0005421852795235869351
0.0005482039635892484684
0.0005490736491232744119
0.0005547328184868089828
0.0005538574922128630717
0.0005456144963566873438
0.0005470450409829556541
0.0005527014684162737113
0.0005512710218791766264
0.0005569131079289176738
0.0005582786498032742822
0.0005632676574420219379
0.0005619005311689932811
0.000559350233972498727
0.0005601218207483679365
0.0005651273935604733938
0.000564348945518064124
0.0005690382073794161659
0.0005698040797734152309
0.0005741290127156364236
0.0005733551089581944652
0.0005665623546226851133
0.0005679519603794492763
0.0005722686640841394756
0.0005708757553352186188
0.0005482477821078261728
0.0005508293693893592368
0.000555840580397117456
0.0005532677817321606396
0.0005531235528195405614
0.0005551187973881484099
0.0005601305076283669051
0.0005581388914837497918
0.0005628543764890776542
0.0005648235755955693591
0.0005691752858848382612
0.0005672074735901161445
0.0005579757085904229336
0.0005605610113411315949
0.0005649281501452949831
0.0005623489054249718178
0.0004927334078714401544
0.0004974730126423678508
0.0005039524959960558614
0.0004992480881610237165
0.000501978132168820197
0.0005062306475200319339
0.0005126632966892120512
0.0005084409206423696082
0.0005146603309317857814
0.0005188318719345809404
0.0005247106970565506732
0.0005205661392303595307
0.0005055097854384693785
0.0005102029336439903176
0.0005161541403837351322
0.000511492923279238329
0.0005102527732575890288
0.000513967032325297001
0.0005204229510822018035
0.0005167335059533087775
0.0005174372849477837247
0.0005206483683116349542
0.0005270765996984748186
0.0005238847094383059129
0.000530067906345276234
0.0005332187637756885448
0.0005390480880001742928
0.0005359136575385474313
0.0005229373132338022969
0.0005266266845908142494
0.0005325050483212483273
0.0005288375097286520743
0.0005347456923302612531
0.0005383282222384905497
0.000543592161392729336
0.0005400283297410444876
0.000541632403823167621
0.0005446428248661187898
0.0005498907350439651833
0.0005468938945172986763
0.0005518736287546599159
0.0005548378811913155274
0.0005594609201377152754
0.0005565073029992561411
0.0005450191394952325248
0.0005485864409676751308
0.0005532467849368771827
0.000549694849345073208
0.0005172450470694300037
0.000521984441582882641
0.0005273658694734314209
0.0005226548305835828148
0.000526456170727151616
0.0005306408356691059373
0.0005359897428222199205
0.0005318286881046785201
0.0005369413565375354786
0.0005410604810195068868
0.0005458301011022975106
0.0005417309370254640892
0.000527797788314421216
0.000532502599390963097
0.0005373314263351802083
0.0005326510583936272612
0.0005543763220533996609
0.0005583677627648255199
0.0005623369322371022695
0.0005583677627648234599
0.0005620523198373466624
0.0005654123401126052344
0.0005693584078309031149
0.000566016760650206582
0.0005696781020945328091
0.0005729874854442973441
0.0005762818737574796658
0.000572987485444300922
0.0005620523198373476382
0.0005660167606502073409
0.0005693584078309039823
0.0005654123401126055597
0.0005684717168812570198
0.0005711622285306174485
0.0005751441608808521323
0.0005724679559494709555
0.0005735358674001451084
0.0005755807603938661605
0.0005795509936092140772
0.0005775161615435722793
0.0005811763742722907654
0.0005831860665658685633
0.000586467622922227168
0.0005844658204740402121
0.0005761358341171819806
0.0005788153043722465843
0.0005821249867303212016
0.0005794570269618836995
0.0005826208742040404854
0.0005852389769352034929
0.0005878484301759739168
0.0005852389769352050108
0.0005875180482712749792
0.0005894462399008610926
0.0005920533109648042991
0.0005901308312718264552
0.0005924073431019384432
0.0005943147061994724645
0.0005962185565613986691
0.0005943147061994714887
0.0005875180482712763887
0.00059013083127182613
0.0005920533109648036486
0.00058944623990086196
0.0005684717168812575619
0.0005724679559494699798
0.0005751441608808523492
0.0005711622285306194001
0.0005761358341171825227
0.0005794570269618832658
0.0005821249867303206595
0.0005788153043722458254
0.0005811763742722896812
0.0005844658204740407542
0.0005864676229222285774
0.0005831860665658679128
0.0005735358674001471684
0.0005775161615435718456
0.0005795509936092119087
0.0005755807603938665942
0.0005773129937151867067
0.0005785698571535223371
0.0005826882252560701327
0.0005814370791755826178
0.0005795021963683549219
0.0005801051764946908544
0.0005842232954702570192
0.0005836214513988347485
0.0005874132628528373236
0.0005879972382084865069
0.0005914076187774301848
0.0005908240854336930994
0.0005852197393052641387
0.0005864829404196841151
0.0005899004636958371257
0.0005886416043818788442
0.0005803670725860046254
0.0005802810218815887544
0.0005844104679966908222
0.0005844930665126242412
0.0005798664663454727169
0.000579125311564617851
0.0005832668913443064514
0.0005839999926448138706
0.0005878068530149022737
0.0005870643232070330659
0.0005904981575436692555
0.0005912333229305985309
0.0005882737542532440059
0.0005882117470619070698
0.0005916311348160506987
0.0005916896880251328039
0.0005949559344803193907
0.0005948582025245099415
0.0005975635586472075522
0.000597657856153773555
0.0005944085107192969772
0.000593609111266082002
0.0005963240800705392475
0.000597116891549994604
0.0005994814105113958338
0.0005986836782462068383
0.000600675389582405999
0.0006014673950541120969
0.0006000031036127497766
0.0005999232938734263892
0.0006019027363019690191
0.0006019791633450386576
0.0005917407085904609343
0.0005930671438409882389
0.0005957675581512245425
0.00059444399657612734
0.0005940460424019766619
0.0005946721459347892921
0.000597376227080875094
0.0005967498429802641944
0.0005991088621306714292
0.0005997248246551061847
0.0006017054192211151922
0.0006010884167621101219
0.0005967947372725384766
0.0005981272900401137264
0.000600111661382321266
0.0005987804241681973479
0.0006013431867638779687
0.0006025903718726143693
0.0006038377690240116519
0.0006025903718726144777
0.000603475575707702991
0.0006039939624769425893
0.0006052483448967654065
0.0006047282382130788345
0.0006056202127751738554
0.0006061380620674190105
0.0006066582705741021229
0.0006061380620674191189
0.0006034755757077027742
0.0006047282382130788345
0.0006052483448967655149
0.0006039939624769424809
0.0006041449950168591978
0.0006039247099740125638
0.0006051886675548664128
0.0006054057241504000667
0.0006033380876206127265
0.0006023882501896787953
0.0006036581557712048266
0.0006046032604443622553
0.0006055097297267468624
0.0006045644835675588599
0.0006051023634845635688
0.0006060439913637138964
0.0006063011234723756152
0.0006060914936718933034
0.0006066196852544973248
0.0006068263263676992305
0.0006069971558681276115
0.0006067910643135209512
0.0006065877182218718531
0.0006067910643135204091
0.0006062152268817098261
0.0006052727806909241398
0.0006050717583782173154
0.0006060117151867252128
0.0006054379832550715575
0.0006045027320824245551
0.000603568832736184769
0.0006045027320824244467
0.0006062152268817097176
0.0006060117151867254297
0.0006050717583782174239
0.0006052727806909242482
0.0006041449950168588726
0.0006054057241504002835
0.0006051886675548667381
0.0006039247099740126723
0.0006063011234723760488
0.0006068263263676991221
0.0006066196852544967827
0.0006060914936718933034
0.0006055097297267475129
0.000606043991363713788
0.0006051023634845632436
0.0006045644835675591851
0.0006033380876206127265
0.0006046032604443624722
0.0006036581557712052603
0.0006023882501896789038
0.0005773129937151873572
0.0005814370791755828346
0.0005826882252560705664
0.0005785698571535210361
0.0005852197393052648976
0.0005886416043818800369
0.0005899004636958381015
0.0005864829404196854161
0.0005874132628528380825
0.0005908240854336920152
0.0005914076187774287754
0.0005879972382084871574
0.0005795021963683538377
0.0005836214513988346401
0.0005842232954702566939
0.0005801051764946902039
0.0005917407085904618017
0.0005944439965761278821
0.0005957675581512240004
0.0005930671438409879136
0.000596794737272539344
0.0005987804241681976732
0.0006001116613823208323
0.000598127290040113618
0.0005991088621306717545
0.0006010884167621102303
0.0006017054192211153006
0.0005997248246551060763
0.0005940460424019769871
0.0005967498429802647365
0.0005973762270808755277
0.0005946721459347885331
0.0005949559344803200412
0.0005976578561537738803
0.000597563558647207769
0.0005948582025245107005
0.0006000031036127491261
0.0006019791633450397418
0.0006019027363019699949
0.0005999232938734255218
0.0005994814105113955086
0.0006014673950541116632
0.0006006753895824057821
0.0005986836782462067299
0.000594408510719297194
0.0005971168915499955798
0.0005963240800705396812
0.0005936091112660818936
0.0005803670725860046254
0.0005844930665126234822
0.0005844104679966911475
0.0005802810218815881039
0.0005882737542532446564
0.0005916896880251310692
0.0005916311348160484219
0.000588211747061908913
0.0005878068530149028158
0.0005912333229305983141
0.0005904981575436691471
0.0005870643232070334996
0.0005798664663454720664
0.0005839999926448144127
0.000583266891344306343
0.0005791253115646179594
0.0004305298157870567468
0.0004391175953210906457
0.0004434632160039099144
0.0004349184141529700148
0.0004474860782704773708
0.0004556075621137150753
0.0004598926142531732219
0.000451812744758669073
0.000455969604228439985
0.0004639986870971496554
0.0004679122890343514812
0.0004599196550002539446
0.0004391436932739458667
0.0004476597978261967004
0.000451670383307998071
0.0004431922796381630161
0.0004635401080461171077
0.000471159740556048633
0.0004754839907033768802
0.0004679042515815908443
0.0004785429503817092978
0.0004856622125354215398
0.0004899335253031473483
0.0004828520382364966828
0.000486956362687401736
0.0004939897100811372439
0.0004978158413036441309
0.000490814980754994694
0.0004720689657870400977
0.0004796244794876245734
0.0004835403043408170016
0.0004760194314245631722