# vtk DataFile Version 3.0
vtk output
ASCII
DATASET POLYDATA

POINTS 154 float
0.958333 0.0416667 0
0.878472 0.211806 0
0.743056 0.201389 0
0.854167 0.145833 0
0.972222 0.180556 0
0.940972 0.232639 0
0.96875 0.302083 0
0.850694 0.267361 0
0.875 0.0833333 0
0.788194 0.121528 0
0.65625 0.114583 0
0.767361 0.0590278 0
0.930556 0.0972222 0
0.819444 0.0277778 0
0.940972 0.357639 0
0.569444 0.972222 0
0.599074 0.709259 0
0.770833 0.84375 0
0.736111 0.576389 0
0.938889 0.761111 0
0.966667 0.691667 0
0.972222 0.819444 0
0.388889 0.351852 0
0.497685 0.351852 0
0.52463 0.445926 0
0.328704 0.462963 0
0.319444 0.347222 0
0.208333 0.458333 0
0.222222 0.319444 0
0.798611 0.256944 0
0.972222 0.430556 0
0.833333 0.375 0
0.725 0.786111 0
0.8 0.545833 0
0.825 0.704167 0
0.580185 0.482963 0
0.675926 0.231481 0
0.671296 0.303241 0
0.717593 0.418981 0
0.606481 0.349537 0
0.464444 0.482963 0
0.428241 0.314815 0
0.50463 0.115741 0
0.587963 0.143519 0
0.44213 0.208333 0
0.548611 0.314815 0
0.386574 0.240741 0
0.642361 0.0590278 0
0.697917 0.03125 0
0.398148 0.425926 0
0.675926 0.460648 0
0.717593 0.335648 0
0.777778 0.319444 0
0.732639 0.149306 0
0.930556 0.527778 0
0.938889 0.636111 0
0.863889 0.640278 0
0.611111 0.423611 0
0.972222 0.569444 0
0.791667 0.458333 0
0.930556 0.472222 0
0.847222 0.430556 0
0.885417 0.34375 0
0.855556 0.573611 0
0.5 0.0555556 0
0.0416667 0.0416667 0
0.302083 0.03125 0
0.256944 0.201389 0
0.232639 0.0590278 0
0.0972222 0.0694444 0
0.0833333 0.125 0
0.180556 0.0277778 0
0.357639 0.0590278 0
0.0590278 0.232639 0
0.0277778 0.180556 0
0.34375 0.114583 0
0.152778 0.430556 0
0.149306 0.267361 0
0.282407 0.300926 0
0.121528 0.211806 0
0.287037 0.421296 0
0.310185 0.231481 0
0.421296 0.143519 0
0.211806 0.121528 0
0.201389 0.256944 0
0.145833 0.145833 0
0.534722 0.24537 0
0.430556 0.0277778 0
0.569444 0.0277778 0
0.03125 0.302083 0
0.363889 0.922222 0
0.201389 0.743056 0
0.469074 0.566296 0
0.245833 0.804167 0
0.166667 0.625 0
0.114583 0.34375 0
0.319444 0.597222 0
0.416667 0.694444 0
0.531481 0.677778 0
0.387037 0.848148 0
0.277778 0.680556 0
0.0694444 0.472222 0
0.0590278 0.357639 0
0.166667 0.375 0
0.597222 0.208333 0
0.532963 0.605185 0
0.625 0.569444 0
0.686111 0.530556 0
0.711111 0.654167 0
0.612963 0.848148 0
0.641667 0.647222 0
0.75 0.715278 0
0.430556 0.972222 0
0.267361 0.149306 0
0.114583 0.65625 0
0.222222 0.680556 0
0.291667 0.541667 0
0.393519 0.601852 0
0.149306 0.732639 0
0.238889 0.922222 0
0.145833 0.854167 0
0.0277778 0.430556 0
0.0416667 0.958333 0
0.0590278 0.767361 0
0.0694444 0.902778 0
0.03125 0.697917 0
0.152778 0.569444 0
0.0277778 0.819444 0
0.121528 0.788194 0
0.125 0.916667 0
0.218056 0.859722 0
0.180556 0.972222 0
0.0590278 0.642361 0
0.0277778 0.569444 0
0.208333 0.541667 0
0.308333 0.95 0
0.0694444 0.527778 0
0.958333 0.958333 0
0.754167 0.91875 0
0.843056 0.838194 0
0.872222 0.769444 0
0.930556 0.902778 0
0.8125 0.96875 0
0.868056 0.913194 0
0.691667 0.95 0
0.643519 0.787037 0
0.518519 0.87037 0
0.490741 0.731481 0
0.5 0.944444 0
0.472222 0.824074 0
0.636111 0.922222 0
0.583889 0.558889 0
0.359259 0.764815 0
0.294444 0.755556 0


VERTICES 154 308
1 0
1 1
1 2
1 3
1 4
1 5
1 6
1 7
1 8
1 9
1 10
1 11
1 12
1 13
1 14
1 15
1 16
1 17
1 18
1 19
1 20
1 21
1 22
1 23
1 24
1 25
1 26
1 27
1 28
1 29
1 30
1 31
1 32
1 33
1 34
1 35
1 36
1 37
1 38
1 39
1 40
1 41
1 42
1 43
1 44
1 45
1 46
1 47
1 48
1 49
1 50
1 51
1 52
1 53
1 54
1 55
1 56
1 57
1 58
1 59
1 60
1 61
1 62
1 63
1 64
1 65
1 66
1 67
1 68
1 69
1 70
1 71
1 72
1 73
1 74
1 75
1 76
1 77
1 78
1 79
1 80
1 81
1 82
1 83
1 84
1 85
1 86
1 87
1 88
1 89
1 90
1 91
1 92
1 93
1 94
1 95
1 96
1 97
1 98
1 99
1 100
1 101
1 102
1 103
1 104
1 105
1 106
1 107
1 108
1 109
1 110
1 111
1 112
1 113
1 114
1 115
1 116
1 117
1 118
1 119
1 120
1 121
1 122
1 123
1 124
1 125
1 126
1 127
1 128
1 129
1 130
1 131
1 132
1 133
1 134
1 135
1 136
1 137
1 138
1 139
1 140
1 141
1 142
1 143
1 144
1 145
1 146
1 147
1 148
1 149
1 150
1 151
1 152
1 153


POINT_DATA 154
SCALARS basis float 6
LOOKUP_TABLE default
1 0 1 0.125 0.875 0
0.8125 0.1875 0.916667 0.166667 0.90625 0.28125
0.666667 0.166667 0.8125 0.1875 0.75 0.25
0.833333 0.0833333 0.916667 0.166667 0.8125 0.1875
0.916667 0.166667 1 0.125 1 0.25
0.90625 0.28125 0.916667 0.166667 1 0.25
1 0.375 0.90625 0.28125 1 0.25
0.833333 0.333333 0.8125 0.1875 0.90625 0.28125
0.833333 0.0833333 0.875 0 0.916667 0.166667
0.71875 0.09375 0.833333 0.0833333 0.8125 0.1875
0.583333 0.0833333 0.71875 0.09375 0.666667 0.166667
0.75 0 0.833333 0.0833333 0.71875 0.09375
0.875 0 1 0.125 0.916667 0.166667
0.75 0 0.875 0 0.833333 0.0833333
0.916667 0.416667 0.90625 0.28125 1 0.375
0.583333 0.916667 0.625 1 0.5 1
0.555556 0.777778 0.566667 0.616667 0.675 0.733333
0.8 0.775 0.8125 0.90625 0.7 0.85
0.75 0.5 0.775 0.6375 0.683333 0.591667
0.9 0.7 1 0.75 0.916667 0.833333
1 0.75 0.9 0.7 1 0.625
1 0.75 1 0.875 0.916667 0.833333
0.458333 0.388889 0.361111 0.388889 0.347222 0.277778
0.555556 0.388889 0.458333 0.388889 0.479167 0.277778
0.555556 0.388889 0.56 0.56 0.458333 0.388889
0.25 0.5 0.361111 0.388889 0.375 0.5
0.25 0.375 0.347222 0.277778 0.361111 0.388889
0.125 0.5 0.25 0.375 0.25 0.5
0.166667 0.333333 0.25 0.25 0.25 0.375
0.833333 0.333333 0.75 0.25 0.8125 0.1875
1 0.5 0.916667 0.416667 1 0.375
0.916667 0.416667 0.75 0.375 0.833333 0.333333
0.675 0.733333 0.8 0.775 0.7 0.85
0.875 0.5 0.775 0.6375 0.75 0.5
0.9 0.7 0.8 0.775 0.775 0.6375
0.56 0.56 0.555556 0.388889 0.625 0.5
0.611111 0.277778 0.666667 0.166667 0.75 0.25
0.652778 0.381944 0.611111 0.277778 0.75 0.25
0.75 0.5 0.652778 0.381944 0.75 0.375
0.555556 0.388889 0.611111 0.277778 0.652778 0.381944
0.375 0.5 0.458333 0.388889 0.56 0.56
0.458333 0.388889 0.347222 0.277778 0.479167 0.277778
0.513889 0.180556 0.416667 0.0833333 0.583333 0.0833333
0.666667 0.166667 0.513889 0.180556 0.583333 0.0833333
0.479167 0.277778 0.333333 0.166667 0.513889 0.180556
0.555556 0.388889 0.479167 0.277778 0.611111 0.277778
0.347222 0.277778 0.333333 0.166667 0.479167 0.277778
0.583333 0.0833333 0.625 0 0.71875 0.09375
0.71875 0.09375 0.625 0 0.75 0
0.458333 0.388889 0.375 0.5 0.361111 0.388889
0.652778 0.381944 0.75 0.5 0.625 0.5
0.75 0.25 0.75 0.375 0.652778 0.381944
0.75 0.25 0.833333 0.333333 0.75 0.375
0.71875 0.09375 0.8125 0.1875 0.666667 0.166667
0.916667 0.583333 0.875 0.5 1 0.5
0.9 0.7 0.916667 0.583333 1 0.625
0.9 0.7 0.775 0.6375 0.916667 0.583333
0.555556 0.388889 0.652778 0.381944 0.625 0.5
0.916667 0.583333 1 0.5 1 0.625
0.75 0.375 0.875 0.5 0.75 0.5
0.916667 0.416667 1 0.5 0.875 0.5
0.75 0.375 0.916667 0.416667 0.875 0.5
0.833333 0.333333 0.90625 0.28125 0.916667 0.416667
0.775 0.6375 0.875 0.5 0.916667 0.583333
0.416667 0.0833333 0.5 0 0.583333 0.0833333
0 0 0.125 0 0 0.125
0.28125 0.09375 0.25 0 0.375 0
0.25 0.25 0.1875 0.1875 0.333333 0.166667
0.166667 0.0833333 0.25 0 0.28125 0.09375
0.166667 0.0833333 0 0.125 0.125 0
0.166667 0.0833333 0.0833333 0.166667 0 0.125
0.25 0 0.166667 0.0833333 0.125 0
0.28125 0.09375 0.375 0 0.416667 0.0833333
0.09375 0.28125 0 0.25 0.0833333 0.166667
0.0833333 0.166667 0 0.25 0 0.125
0.416667 0.0833333 0.333333 0.166667 0.28125 0.09375
0.0833333 0.416667 0.25 0.375 0.125 0.5
0.1875 0.1875 0.166667 0.333333 0.09375 0.28125
0.25 0.25 0.347222 0.277778 0.25 0.375
0.0833333 0.166667 0.1875 0.1875 0.09375 0.28125
0.25 0.375 0.361111 0.388889 0.25 0.5
0.333333 0.166667 0.347222 0.277778 0.25 0.25
0.333333 0.166667 0.416667 0.0833333 0.513889 0.180556
0.1875 0.1875 0.166667 0.0833333 0.28125 0.09375
0.166667 0.333333 0.1875 0.1875 0.25 0.25
0.0833333 0.166667 0.166667 0.0833333 0.1875 0.1875
0.479167 0.277778 0.513889 0.180556 0.611111 0.277778
0.5 0 0.416667 0.0833333 0.375 0
0.5 0 0.625 0 0.583333 0.0833333
0 0.375 0 0.25 0.09375 0.28125
0.3 0.85 0.416667 0.916667 0.375 1
0.166667 0.666667 0.25 0.75 0.1875 0.8125
0.472222 0.638889 0.375 0.5 0.56 0.56
0.1875 0.8125 0.25 0.75 0.3 0.85
0.166667 0.666667 0.0833333 0.583333 0.25 0.625
0.09375 0.28125 0.166667 0.333333 0.0833333 0.416667
0.333333 0.666667 0.25 0.625 0.375 0.5
0.444444 0.777778 0.333333 0.666667 0.472222 0.638889
0.566667 0.616667 0.555556 0.777778 0.472222 0.638889
0.416667 0.916667 0.3 0.85 0.444444 0.777778
0.25 0.75 0.25 0.625 0.333333 0.666667
0.0833333 0.416667 0.125 0.5 0 0.5
0.09375 0.28125 0.0833333 0.416667 0 0.375
0.166667 0.333333 0.25 0.375 0.0833333 0.416667
0.513889 0.180556 0.666667 0.166667 0.611111 0.277778
0.566667 0.616667 0.472222 0.638889 0.56 0.56
0.683333 0.591667 0.566667 0.616667 0.625 0.5
0.75 0.5 0.683333 0.591667 0.625 0.5
0.775 0.6375 0.675 0.733333 0.683333 0.591667
0.555556 0.777778 0.7 0.85 0.583333 0.916667
0.683333 0.591667 0.675 0.733333 0.566667 0.616667
0.775 0.6375 0.8 0.775 0.675 0.733333
0.375 1 0.416667 0.916667 0.5 1
0.1875 0.1875 0.28125 0.09375 0.333333 0.166667
0.166667 0.666667 0.09375 0.71875 0.0833333 0.583333
0.25 0.625 0.25 0.75 0.166667 0.666667
0.375 0.5 0.25 0.625 0.25 0.5
0.375 0.5 0.472222 0.638889 0.333333 0.666667
0.1875 0.8125 0.09375 0.71875 0.166667 0.666667
0.25 1 0.166667 0.916667 0.3 0.85
0.166667 0.916667 0.0833333 0.833333 0.1875 0.8125
0 0.5 0 0.375 0.0833333 0.416667
0.125 1 0 1 0 0.875
0.0833333 0.833333 0 0.75 0.09375 0.71875
0.125 1 0 0.875 0.0833333 0.833333
0.09375 0.71875 0 0.75 0 0.625
0.125 0.5 0.25 0.625 0.0833333 0.583333
0.0833333 0.833333 0 0.875 0 0.75
0.1875 0.8125 0.0833333 0.833333 0.09375 0.71875
0.166667 0.916667 0.125 1 0.0833333 0.833333
0.3 0.85 0.166667 0.916667 0.1875 0.8125
0.25 1 0.125 1 0.166667 0.916667
0.0833333 0.583333 0.09375 0.71875 0 0.625
0 0.5 0.0833333 0.583333 0 0.625
0.125 0.5 0.25 0.5 0.25 0.625
0.375 1 0.25 1 0.3 0.85
0.125 0.5 0.0833333 0.583333 0 0.5
1 1 0.875 1 1 0.875
0.8125 0.90625 0.75 1 0.7 0.85
0.916667 0.833333 0.8125 0.90625 0.8 0.775
0.9 0.7 0.916667 0.833333 0.8 0.775
1 0.875 0.875 1 0.916667 0.833333
0.875 1 0.75 1 0.8125 0.90625
0.8125 0.90625 0.916667 0.833333 0.875 1
0.625 1 0.7 0.85 0.75 1
0.555556 0.777778 0.675 0.733333 0.7 0.85
0.416667 0.916667 0.555556 0.777778 0.583333 0.916667
0.444444 0.777778 0.472222 0.638889 0.555556 0.777778
0.583333 0.916667 0.5 1 0.416667 0.916667
0.444444 0.777778 0.555556 0.777778 0.416667 0.916667
0.7 0.85 0.625 1 0.583333 0.916667
0.566667 0.616667 0.56 0.56 0.625 0.5
0.3 0.85 0.333333 0.666667 0.444444 0.777778
0.3 0.85 0.25 0.75 0.333333 0.666667
