# vtk DataFile Version 2.0
particlePositions
ASCII
DATASET POLYDATA
POINTS 216 float
-1.000000 -1.000000 -1.000000
-1.000000 -0.600000 -1.000000
-1.000000 -0.200000 -1.000000
-1.000000 0.200000 -1.000000
-1.000000 0.600000 -1.000000
-1.000000 1.000000 -1.000000
-0.600000 -1.000000 -1.000000
-0.600000 -0.600000 -1.000000
-0.600000 -0.200000 -1.000000
-0.600000 0.200000 -1.000000
-0.600000 0.600000 -1.000000
-0.600000 1.000000 -1.000000
-0.200000 -1.000000 -1.000000
-0.200000 -0.600000 -1.000000
-0.200000 -0.200000 -1.000000
-0.200000 0.200000 -1.000000
-0.200000 0.600000 -1.000000
-0.200000 1.000000 -1.000000
0.200000 -1.000000 -1.000000
0.200000 -0.600000 -1.000000
0.200000 -0.200000 -1.000000
0.200000 0.200000 -1.000000
0.200000 0.600000 -1.000000
0.200000 1.000000 -1.000000
0.600000 -1.000000 -1.000000
0.600000 -0.600000 -1.000000
0.600000 -0.200000 -1.000000
0.600000 0.200000 -1.000000
0.600000 0.600000 -1.000000
0.600000 1.000000 -1.000000
1.000000 -1.000000 -1.000000
1.000000 -0.600000 -1.000000
1.000000 -0.200000 -1.000000
1.000000 0.200000 -1.000000
1.000000 0.600000 -1.000000
1.000000 1.000000 -1.000000
-1.000000 -1.000000 -0.600000
-1.000000 -0.600000 -0.600000
-1.000000 -0.200000 -0.600000
-1.000000 0.200000 -0.600000
-1.000000 0.600000 -0.600000
-1.000000 1.000000 -0.600000
-0.600000 -1.000000 -0.600000
-0.600000 -0.600000 -0.600000
-0.600000 -0.200000 -0.600000
-0.600000 0.200000 -0.600000
-0.600000 0.600000 -0.600000
-0.600000 1.000000 -0.600000
-0.200000 -1.000000 -0.600000
-0.200000 -0.600000 -0.600000
-0.200000 -0.200000 -0.600000
-0.200000 0.200000 -0.600000
-0.200000 0.600000 -0.600000
-0.200000 1.000000 -0.600000
0.200000 -1.000000 -0.600000
0.200000 -0.600000 -0.600000
0.200000 -0.200000 -0.600000
0.200000 0.200000 -0.600000
0.200000 0.600000 -0.600000
0.200000 1.000000 -0.600000
0.600000 -1.000000 -0.600000
0.600000 -0.600000 -0.600000
0.600000 -0.200000 -0.600000
0.600000 0.200000 -0.600000
0.600000 0.600000 -0.600000
0.600000 1.000000 -0.600000
1.000000 -1.000000 -0.600000
1.000000 -0.600000 -0.600000
1.000000 -0.200000 -0.600000
1.000000 0.200000 -0.600000
1.000000 0.600000 -0.600000
1.000000 1.000000 -0.600000
-1.000000 -1.000000 -0.200000
-1.000000 -0.600000 -0.200000
-1.000000 -0.200000 -0.200000
-1.000000 0.200000 -0.200000
-1.000000 0.600000 -0.200000
-1.000000 1.000000 -0.200000
-0.600000 -1.000000 -0.200000
-0.600000 -0.600000 -0.200000
-0.600000 -0.200000 -0.200000
-0.600000 0.200000 -0.200000
-0.600000 0.600000 -0.200000
-0.600000 1.000000 -0.200000
-0.200000 -1.000000 -0.200000
-0.200000 -0.600000 -0.200000
-0.200000 -0.200000 -0.200000
-0.200000 0.200000 -0.200000
-0.200000 0.600000 -0.200000
-0.200000 1.000000 -0.200000
0.200000 -1.000000 -0.200000
0.200000 -0.600000 -0.200000
0.200000 -0.200000 -0.200000
0.200000 0.200000 -0.200000
0.200000 0.600000 -0.200000
0.200000 1.000000 -0.200000
0.600000 -1.000000 -0.200000
0.600000 -0.600000 -0.200000
0.600000 -0.200000 -0.200000
0.600000 0.200000 -0.200000
0.600000 0.600000 -0.200000
0.600000 1.000000 -0.200000
1.000000 -1.000000 -0.200000
1.000000 -0.600000 -0.200000
1.000000 -0.200000 -0.200000
1.000000 0.200000 -0.200000
1.000000 0.600000 -0.200000
1.000000 1.000000 -0.200000
-1.000000 -1.000000 0.200000
-1.000000 -0.600000 0.200000
-1.000000 -0.200000 0.200000
-1.000000 0.200000 0.200000
-1.000000 0.600000 0.200000
-1.000000 1.000000 0.200000
-0.600000 -1.000000 0.200000
-0.600000 -0.600000 0.200000
-0.600000 -0.200000 0.200000
-0.600000 0.200000 0.200000
-0.600000 0.600000 0.200000
-0.600000 1.000000 0.200000
-0.200000 -1.000000 0.200000
-0.200000 -0.600000 0.200000
-0.200000 -0.200000 0.200000
-0.200000 0.200000 0.200000
-0.200000 0.600000 0.200000
-0.200000 1.000000 0.200000
0.200000 -1.000000 0.200000
0.200000 -0.600000 0.200000
0.200000 -0.200000 0.200000
0.200000 0.200000 0.200000
0.200000 0.600000 0.200000
0.200000 1.000000 0.200000
0.600000 -1.000000 0.200000
0.600000 -0.600000 0.200000
0.600000 -0.200000 0.200000
0.600000 0.200000 0.200000
0.600000 0.600000 0.200000
0.600000 1.000000 0.200000
1.000000 -1.000000 0.200000
1.000000 -0.600000 0.200000
1.000000 -0.200000 0.200000
1.000000 0.200000 0.200000
1.000000 0.600000 0.200000
1.000000 1.000000 0.200000
-1.000000 -1.000000 0.600000
-1.000000 -0.600000 0.600000
-1.000000 -0.200000 0.600000
-1.000000 0.200000 0.600000
-1.000000 0.600000 0.600000
-1.000000 1.000000 0.600000
-0.600000 -1.000000 0.600000
-0.600000 -0.600000 0.600000
-0.600000 -0.200000 0.600000
-0.600000 0.200000 0.600000
-0.600000 0.600000 0.600000
-0.600000 1.000000 0.600000
-0.200000 -1.000000 0.600000
-0.200000 -0.600000 0.600000
-0.200000 -0.200000 0.600000
-0.200000 0.200000 0.600000
-0.200000 0.600000 0.600000
-0.200000 1.000000 0.600000
0.200000 -1.000000 0.600000
0.200000 -0.600000 0.600000
0.200000 -0.200000 0.600000
0.200000 0.200000 0.600000
0.200000 0.600000 0.600000
0.200000 1.000000 0.600000
0.600000 -1.000000 0.600000
0.600000 -0.600000 0.600000
0.600000 -0.200000 0.600000
0.600000 0.200000 0.600000
0.600000 0.600000 0.600000
0.600000 1.000000 0.600000
1.000000 -1.000000 0.600000
1.000000 -0.600000 0.600000
1.000000 -0.200000 0.600000
1.000000 0.200000 0.600000
1.000000 0.600000 0.600000
1.000000 1.000000 0.600000
-1.000000 -1.000000 1.000000
-1.000000 -0.600000 1.000000
-1.000000 -0.200000 1.000000
-1.000000 0.200000 1.000000
-1.000000 0.600000 1.000000
-1.000000 1.000000 1.000000
-0.600000 -1.000000 1.000000
-0.600000 -0.600000 1.000000
-0.600000 -0.200000 1.000000
-0.600000 0.200000 1.000000
-0.600000 0.600000 1.000000
-0.600000 1.000000 1.000000
-0.200000 -1.000000 1.000000
-0.200000 -0.600000 1.000000
-0.200000 -0.200000 1.000000
-0.200000 0.200000 1.000000
-0.200000 0.600000 1.000000
-0.200000 1.000000 1.000000
0.200000 -1.000000 1.000000
0.200000 -0.600000 1.000000
0.200000 -0.200000 1.000000
0.200000 0.200000 1.000000
0.200000 0.600000 1.000000
0.200000 1.000000 1.000000
0.600000 -1.000000 1.000000
0.600000 -0.600000 1.000000
0.600000 -0.200000 1.000000
0.600000 0.200000 1.000000
0.600000 0.600000 1.000000
0.600000 1.000000 1.000000
1.000000 -1.000000 1.000000
1.000000 -0.600000 1.000000
1.000000 -0.200000 1.000000
1.000000 0.200000 1.000000
1.000000 0.600000 1.000000
1.000000 1.000000 1.000000
POINT_DATA 216 
SCALARS FLAG float 1
LOOKUP_TABLE default
1
1
1
1
1
1
1
1
1
1
1
1
1
1
1
1
1
1
1
1
1
1
1
1
1
1
1
1
1
1
1
1
1
1
1
1
1
1
1
1
1
1
1
0
0
0
0
1
1
0
0
0
0
1
1
0
0
0
0
1
1
0
0
0
0
1
1
1
1
1
1
1
1
1
1
1
1
1
1
0
0
0
0
1
1
0
0
0
0
1
1
0
0
0
0
1
1
0
0
0
0
1
1
1
1
1
1
1
1
1
1
1
1
1
1
0
0
0
0
1
1
0
0
0
0
1
1
0
0
0
0
1
1
0
0
0
0
1
1
1
1
1
1
1
1
1
1
1
1
1
1
0
0
0
0
1
1
0
0
0
0
1
1
0
0
0
0
1
1
0
0
0
0
1
1
1
1
1
1
1
1
1
1
1
1
1
1
1
1
1
1
1
1
1
1
1
1
1
1
1
1
1
1
1
1
1
1
1
1
1
1
1
1
1
1
1
SCALARS P float 1
LOOKUP_TABLE default
0
0
0
0
0
0
0
0
0
0
0
0
0
0
0
0
0
0
0
0
0
0
0
0
0
0
0
0
0
0
0
0
0
0
0
0
0
0
0
0
0
0
0
0
0
0
0
0
0
0
0
0
0
0
0
0
0
0
0
0
0
0
0
0
0
0
0
0
0
0
0
0
0
0
0
0
0
0
0
0
0
0
0
0
0
0
0
0
0
0
0
0
0
0
0
0
0
0
0
0
0
0
0
0
0
0
0
0
0
0
0
0
0
0
0
0
0
0
0
0
0
0
0
0
0
0
0
0
0
0
0
0
0
0
0
0
0
0
0
0
0
0
0
0
0
0
0
0
0
0
0
0
0
0
0
0
0
0
0
0
0
0
0
0
0
0
0
0
0
0
0
0
0
0
0
0
0
0
0
0
0
0
0
0
0
0
0
0
0
0
0
0
0
0
0
0
0
0
0
0
0
0
0
0
0
0
0
0
0
0
0
0
0
0
0
0
