# vtk DataFile Version 2.0
particlePositions
ASCII
DATASET POLYDATA
POINTS 15936 float
-1 -1 -1
-1 -1 -0.913043
-1 -1 -0.826087
-1 -1 -0.73913
-1 -1 -0.652174
-1 -1 -0.565217
-1 -1 -0.478261
-1 -1 -0.391304
-1 -1 -0.304348
-1 -1 -0.217391
-1 -1 -0.130435
-1 -1 -0.0434783
-1 -1 0.0434783
-1 -1 0.130435
-1 -1 0.217391
-1 -1 0.304348
-1 -1 0.391304
-1 -1 0.478261
-1 -1 0.565217
-1 -1 0.652174
-1 -1 0.73913
-1 -1 0.826087
-1 -1 0.913043
-1 -1 1
-1 -0.913043 -1
-1 -0.913043 -0.913043
-1 -0.913043 -0.826087
-1 -0.913043 -0.73913
-1 -0.913043 -0.652174
-1 -0.913043 -0.565217
-1 -0.913043 -0.478261
-1 -0.913043 -0.391304
-1 -0.913043 -0.304348
-1 -0.913043 -0.217391
-1 -0.913043 -0.130435
-1 -0.913043 -0.0434783
-1 -0.913043 0.0434783
-1 -0.913043 0.130435
-1 -0.913043 0.217391
-1 -0.913043 0.304348
-1 -0.913043 0.391304
-1 -0.913043 0.478261
-1 -0.913043 0.565217
-1 -0.913043 0.652174
-1 -0.913043 0.73913
-1 -0.913043 0.826087
-1 -0.913043 0.913043
-1 -0.913043 1
-1 -0.826087 -1
-1 -0.826087 -0.913043
-1 -0.826087 -0.826087
-1 -0.826087 -0.73913
-1 -0.826087 -0.652174
-1 -0.826087 -0.565217
-1 -0.826087 -0.478261
-1 -0.826087 -0.391304
-1 -0.826087 -0.304348
-1 -0.826087 -0.217391
-1 -0.826087 -0.130435
-1 -0.826087 -0.0434783
-1 -0.826087 0.0434783
-1 -0.826087 0.130435
-1 -0.826087 0.217391
-1 -0.826087 0.304348
-1 -0.826087 0.391304
-1 -0.826087 0.478261
-1 -0.826087 0.565217
-1 -0.826087 0.652174
-1 -0.826087 0.73913
-1 -0.826087 0.826087
-1 -0.826087 0.913043
-1 -0.826087 1
-1 -0.73913 -1
-1 -0.73913 -0.913043
-1 -0.73913 -0.826087
-1 -0.73913 -0.73913
-1 -0.73913 -0.652174
-1 -0.73913 -0.565217
-1 -0.73913 -0.478261
-1 -0.73913 -0.391304
-1 -0.73913 -0.304348
-1 -0.73913 -0.217391
-1 -0.73913 -0.130435
-1 -0.73913 -0.0434783
-1 -0.73913 0.0434783
-1 -0.73913 0.130435
-1 -0.73913 0.217391
-1 -0.73913 0.304348
-1 -0.73913 0.391304
-1 -0.73913 0.478261
-1 -0.73913 0.565217
-1 -0.73913 0.652174
-1 -0.73913 0.73913
-1 -0.73913 0.826087
-1 -0.73913 0.913043
-1 -0.73913 1
-1 -0.652174 -1
-1 -0.652174 -0.913043
-1 -0.652174 -0.826087
-1 -0.652174 -0.73913
-1 -0.652174 -0.652174
-1 -0.652174 -0.565217
-1 -0.652174 -0.478261
-1 -0.652174 -0.391304
-1 -0.652174 -0.304348
-1 -0.652174 -0.217391
-1 -0.652174 -0.130435
-1 -0.652174 -0.0434783
-1 -0.652174 0.0434783
-1 -0.652174 0.130435
-1 -0.652174 0.217391
-1 -0.652174 0.304348
-1 -0.652174 0.391304
-1 -0.652174 0.478261
-1 -0.652174 0.565217
-1 -0.652174 0.652174
-1 -0.652174 0.73913
-1 -0.652174 0.826087
-1 -0.652174 0.913043
-1 -0.652174 1
-1 -0.565217 -1
-1 -0.565217 -0.913043
-1 -0.565217 -0.826087
-1 -0.565217 -0.73913
-1 -0.565217 -0.652174
-1 -0.565217 -0.565217
-1 -0.565217 -0.478261
-1 -0.565217 -0.391304
-1 -0.565217 -0.304348
-1 -0.565217 -0.217391
-1 -0.565217 -0.130435
-1 -0.565217 -0.0434783
-1 -0.565217 0.0434783
-1 -0.565217 0.130435
-1 -0.565217 0.217391
-1 -0.565217 0.304348
-1 -0.565217 0.391304
-1 -0.565217 0.478261
-1 -0.565217 0.565217
-1 -0.565217 0.652174
-1 -0.565217 0.73913
-1 -0.565217 0.826087
-1 -0.565217 0.913043
-1 -0.565217 1
-1 -0.478261 -1
-1 -0.478261 -0.913043
-1 -0.478261 -0.826087
-1 -0.478261 -0.73913
-1 -0.478261 -0.652174
-1 -0.478261 -0.565217
-1 -0.478261 -0.478261
-1 -0.478261 -0.391304
-1 -0.478261 -0.304348
-1 -0.478261 -0.217391
-1 -0.478261 -0.130435
-1 -0.478261 -0.0434783
-1 -0.478261 0.0434783
-1 -0.478261 0.130435
-1 -0.478261 0.217391
-1 -0.478261 0.304348
-1 -0.478261 0.391304
-1 -0.478261 0.478261
-1 -0.478261 0.565217
-1 -0.478261 0.652174
-1 -0.478261 0.73913
-1 -0.478261 0.826087
-1 -0.478261 0.913043
-1 -0.478261 1
-1 -0.391304 -1
-1 -0.391304 -0.913043
-1 -0.391304 -0.826087
-1 -0.391304 -0.73913
-1 -0.391304 -0.652174
-1 -0.391304 -0.565217
-1 -0.391304 -0.478261
-1 -0.391304 -0.391304
-1 -0.391304 -0.304348
-1 -0.391304 -0.217391
-1 -0.391304 -0.130435
-1 -0.391304 -0.0434783
-1 -0.391304 0.0434783
-1 -0.391304 0.130435
-1 -0.391304 0.217391
-1 -0.391304 0.304348
-1 -0.391304 0.391304
-1 -0.391304 0.478261
-1 -0.391304 0.565217
-1 -0.391304 0.652174
-1 -0.391304 0.73913
-1 -0.391304 0.826087
-1 -0.391304 0.913043
-1 -0.391304 1
-1 -0.304348 -1
-1 -0.304348 -0.913043
-1 -0.304348 -0.826087
-1 -0.304348 -0.73913
-1 -0.304348 -0.652174
-1 -0.304348 -0.565217
-1 -0.304348 -0.478261
-1 -0.304348 -0.391304
-1 -0.304348 -0.304348
-1 -0.304348 -0.217391
-1 -0.304348 -0.130435
-1 -0.304348 -0.0434783
-1 -0.304348 0.0434783
-1 -0.304348 0.130435
-1 -0.304348 0.217391
-1 -0.304348 0.304348
-1 -0.304348 0.391304
-1 -0.304348 0.478261
-1 -0.304348 0.565217
-1 -0.304348 0.652174
-1 -0.304348 0.73913
-1 -0.304348 0.826087
-1 -0.304348 0.913043
-1 -0.304348 1
-1 -0.217391 -1
-1 -0.217391 -0.913043
-1 -0.217391 -0.826087
-1 -0.217391 -0.73913
-1 -0.217391 -0.652174
-1 -0.217391 -0.565217
-1 -0.217391 -0.478261
-1 -0.217391 -0.391304
-1 -0.217391 -0.304348
-1 -0.217391 -0.217391
-1 -0.217391 -0.130435
-1 -0.217391 -0.0434783
-1 -0.217391 0.0434783
-1 -0.217391 0.130435
-1 -0.217391 0.217391
-1 -0.217391 0.304348
-1 -0.217391 0.391304
-1 -0.217391 0.478261
-1 -0.217391 0.565217
-1 -0.217391 0.652174
-1 -0.217391 0.73913
-1 -0.217391 0.826087
-1 -0.217391 0.913043
-1 -0.217391 1
-1 -0.130435 -1
-1 -0.130435 -0.913043
-1 -0.130435 -0.826087
-1 -0.130435 -0.73913
-1 -0.130435 -0.652174
-1 -0.130435 -0.565217
-1 -0.130435 -0.478261
-1 -0.130435 -0.391304
-1 -0.130435 -0.304348
-1 -0.130435 -0.217391
-1 -0.130435 -0.130435
-1 -0.130435 -0.0434783
-1 -0.130435 0.0434783
-1 -0.130435 0.130435
-1 -0.130435 0.217391
-1 -0.130435 0.304348
-1 -0.130435 0.391304
-1 -0.130435 0.478261
-1 -0.130435 0.565217
-1 -0.130435 0.652174
-1 -0.130435 0.73913
-1 -0.130435 0.826087
-1 -0.130435 0.913043
-1 -0.130435 1
-1 -0.0434783 -1
-1 -0.0434783 -0.913043
-1 -0.0434783 -0.826087
-1 -0.0434783 -0.73913
-1 -0.0434783 -0.652174
-1 -0.0434783 -0.565217
-1 -0.0434783 -0.478261
-1 -0.0434783 -0.391304
-1 -0.0434783 -0.304348
-1 -0.0434783 -0.217391
-1 -0.0434783 -0.130435
-1 -0.0434783 -0.0434783
-1 -0.0434783 0.0434783
-1 -0.0434783 0.130435
-1 -0.0434783 0.217391
-1 -0.0434783 0.304348
-1 -0.0434783 0.391304
-1 -0.0434783 0.478261
-1 -0.0434783 0.565217
-1 -0.0434783 0.652174
-1 -0.0434783 0.73913
-1 -0.0434783 0.826087
-1 -0.0434783 0.913043
-1 -0.0434783 1
-1 0.0434783 -1
-1 0.0434783 -0.913043
-1 0.0434783 -0.826087
-1 0.0434783 -0.73913
-1 0.0434783 -0.652174
-1 0.0434783 -0.565217
-1 0.0434783 -0.478261
-1 0.0434783 -0.391304
-1 0.0434783 -0.304348
-1 0.0434783 -0.217391
-1 0.0434783 -0.130435
-1 0.0434783 -0.0434783
-1 0.0434783 0.0434783
-1 0.0434783 0.130435
-1 0.0434783 0.217391
-1 0.0434783 0.304348
-1 0.0434783 0.391304
-1 0.0434783 0.478261
-1 0.0434783 0.565217
-1 0.0434783 0.652174
-1 0.0434783 0.73913
-1 0.0434783 0.826087
-1 0.0434783 0.913043
-1 0.0434783 1
-1 0.130435 -1
-1 0.130435 -0.913043
-1 0.130435 -0.826087
-1 0.130435 -0.73913
-1 0.130435 -0.652174
-1 0.130435 -0.565217
-1 0.130435 -0.478261
-1 0.130435 -0.391304
-1 0.130435 -0.304348
-1 0.130435 -0.217391
-1 0.130435 -0.130435
-1 0.130435 -0.0434783
-1 0.130435 0.0434783
-1 0.130435 0.130435
-1 0.130435 0.217391
-1 0.130435 0.304348
-1 0.130435 0.391304
-1 0.130435 0.478261
-1 0.130435 0.565217
-1 0.130435 0.652174
-1 0.130435 0.73913
-1 0.130435 0.826087
-1 0.130435 0.913043
-1 0.130435 1
-1 0.217391 -1
-1 0.217391 -0.913043
-1 0.217391 -0.826087
-1 0.217391 -0.73913
-1 0.217391 -0.652174
-1 0.217391 -0.565217
-1 0.217391 -0.478261
-1 0.217391 -0.391304
-1 0.217391 -0.304348
-1 0.217391 -0.217391
-1 0.217391 -0.130435
-1 0.217391 -0.0434783
-1 0.217391 0.0434783
-1 0.217391 0.130435
-1 0.217391 0.217391
-1 0.217391 0.304348
-1 0.217391 0.391304
-1 0.217391 0.478261
-1 0.217391 0.565217
-1 0.217391 0.652174
-1 0.217391 0.73913
-1 0.217391 0.826087
-1 0.217391 0.913043
-1 0.217391 1
-1 0.304348 -1
-1 0.304348 -0.913043
-1 0.304348 -0.826087
-1 0.304348 -0.73913
-1 0.304348 -0.652174
-1 0.304348 -0.565217
-1 0.304348 -0.478261
-1 0.304348 -0.391304
-1 0.304348 -0.304348
-1 0.304348 -0.217391
-1 0.304348 -0.130435
-1 0.304348 -0.0434783
-1 0.304348 0.0434783
-1 0.304348 0.130435
-1 0.304348 0.217391
-1 0.304348 0.304348
-1 0.304348 0.391304
-1 0.304348 0.478261
-1 0.304348 0.565217
-1 0.304348 0.652174
-1 0.304348 0.73913
-1 0.304348 0.826087
-1 0.304348 0.913043
-1 0.304348 1
-1 0.391304 -1
-1 0.391304 -0.913043
-1 0.391304 -0.826087
-1 0.391304 -0.73913
-1 0.391304 -0.652174
-1 0.391304 -0.565217
-1 0.391304 -0.478261
-1 0.391304 -0.391304
-1 0.391304 -0.304348
-1 0.391304 -0.217391
-1 0.391304 -0.130435
-1 0.391304 -0.0434783
-1 0.391304 0.0434783
-1 0.391304 0.130435
-1 0.391304 0.217391
-1 0.391304 0.304348
-1 0.391304 0.391304
-1 0.391304 0.478261
-1 0.391304 0.565217
-1 0.391304 0.652174
-1 0.391304 0.73913
-1 0.391304 0.826087
-1 0.391304 0.913043
-1 0.391304 1
-1 0.478261 -1
-1 0.478261 -0.913043
-1 0.478261 -0.826087
-1 0.478261 -0.73913
-1 0.478261 -0.652174
-1 0.478261 -0.565217
-1 0.478261 -0.478261
-1 0.478261 -0.391304
-1 0.478261 -0.304348
-1 0.478261 -0.217391
-1 0.478261 -0.130435
-1 0.478261 -0.0434783
-1 0.478261 0.0434783
-1 0.478261 0.130435
-1 0.478261 0.217391
-1 0.478261 0.304348
-1 0.478261 0.391304
-1 0.478261 0.478261
-1 0.478261 0.565217
-1 0.478261 0.652174
-1 0.478261 0.73913
-1 0.478261 0.826087
-1 0.478261 0.913043
-1 0.478261 1
-1 0.565217 -1
-1 0.565217 -0.913043
-1 0.565217 -0.826087
-1 0.565217 -0.73913
-1 0.565217 -0.652174
-1 0.565217 -0.565217
-1 0.565217 -0.478261
-1 0.565217 -0.391304
-1 0.565217 -0.304348
-1 0.565217 -0.217391
-1 0.565217 -0.130435
-1 0.565217 -0.0434783
-1 0.565217 0.0434783
-1 0.565217 0.130435
-1 0.565217 0.217391
-1 0.565217 0.304348
-1 0.565217 0.391304
-1 0.565217 0.478261
-1 0.565217 0.565217
-1 0.565217 0.652174
-1 0.565217 0.73913
-1 0.565217 0.826087
-1 0.565217 0.913043
-1 0.565217 1
-1 0.652174 -1
-1 0.652174 -0.913043
-1 0.652174 -0.826087
-1 0.652174 -0.73913
-1 0.652174 -0.652174
-1 0.652174 -0.565217
-1 0.652174 -0.478261
-1 0.652174 -0.391304
-1 0.652174 -0.304348
-1 0.652174 -0.217391
[...]
POINT_DATA 15936
SCALARS U float 3
LOOKUP_TABLE default
0 0 0
0 0 0
0 0 0
0 0 0
0 0 0
0 0 0
0 0 0
0 0 0
0 0 0
0 0 0
0 0 0
0 0 0
0 0 0
0 0 0
0 0 0
0 0 0
0 0 0
0 0 0
0 0 0
0 0 0
0 0 0
0 0 0
0 0 0
0 0 0
0 0 0
0 0 0
0 0 0
0 0 0
0 0 0
0 0 0
0 0 0
0 0 0
0 0 0
0 0 0
0 0 0
0 0 0
0 0 0
0 0 0
0 0 0
0 0 0
0 0 0
0 0 0
0 0 0
0 0 0
0 0 0
0 0 0
0 0 0
0 0 0
0 0 0
0 0 0
0 0 0
0 0 0
0 0 0
0 0 0
0 0 0
0 0 0
0 0 0
0 0 0
0 0 0
0 0 0
0 0 0
0 0 0
0 0 0
0 0 0
0 0 0
0 0 0
0 0 0
0 0 0
0 0 0
0 0 0
0 0 0
0 0 0
0 0 0
0 0 0
0 0 0
0 0 0
0 0 0
0 0 0
0 0 0
0 0 0
0 0 0
0 0 0
0 0 0
0 0 0
0 0 0
0 0 0
0 0 0
0 0 0
0 0 0
0 0 0
0 0 0
0 0 0
0 0 0
0 0 0
0 0 0
0 0 0
0 0 0
0 0 0
0 0 0
0 0 0
0 0 0
0 0 0
0 0 0
0 0 0
0 0 0
0 0 0
0 0 0
0 0 0
0 0 0
0 0 0
0 0 0
0 0 0
0 0 0
0 0 0
0 0 0
0 0 0
0 0 0
0 0 0
0 0 0
0 0 0
0 0 0
0 0 0
0 0 0
0 0 0
0 0 0
0 0 0
0 0 0
0 0 0
0 0 0
0 0 0
0 0 0
0 0 0
0 0 0
0 0 0
0 0 0
0 0 0
0 0 0
0 0 0
0 0 0
0 0 0
0 0 0
0 0 0
0 0 0
0 0 0
0 0 0
0 0 0
0 0 0
0 0 0
0 0 0
0 0 0
0 0 0
0 0 0
0 0 0
0 0 0
0 0 0
0 0 0
0 0 0
0 0 0
0 0 0
0 0 0
0 0 0
0 0 0
0 0 0
0 0 0
0 0 0
0 0 0
0 0 0
0 0 0
0 0 0
0 0 0
0 0 0
0 0 0
0 0 0
0 0 0
0 0 0
0 0 0
0 0 0
0 0 0
0 0 0
0 0 0
0 0 0
0 0 0
0 0 0
0 0 0
0 0 0
0 0 0
0 0 0
0 0 0
0 0 0
0 0 0
0 0 0
0 0 0
0 0 0
0 0 0
0 0 0
0 0 0
0 0 0
0 0 0
0 0 0
0 0 0
0 0 0
0 0 0
0 0 0
0 0 0
0 0 0
0 0 0
0 0 0
0 0 0
0 0 0
0 0 0
0 0 0
0 0 0
0 0 0
0 0 0
0 0 0
0 0 0
0 0 0
0 0 0
0 0 0
0 0 0
0 0 0
0 0 0
0 0 0
0 0 0
0 0 0
0 0 0
0 0 0
0 0 0
0 0 0
0 0 0
0 0 0
0 0 0
0 0 0
0 0 0
0 0 0
0 0 0
0 0 0
0 0 0
0 0 0
0 0 0
0 0 0
0 0 0
0 0 0
0 0 0
0 0 0
0 0 0
0 0 0
0 0 0
0 0 0
0 0 0
0 0 0
0 0 0
0 0 0
0 0 0
0 0 0
0 0 0
0 0 0
0 0 0
0 0 0
0 0 0
0 0 0
0 0 0
0 0 0
0 0 0
0 0 0
0 0 0
0 0 0
0 0 0
0 0 0
0 0 0
0 0 0
0 0 0
0 0 0
0 0 0
0 0 0
0 0 0
0 0 0
0 0 0
0 0 0
0 0 0
0 0 0
0 0 0
0 0 0
0 0 0
0 0 0
0 0 0
0 0 0
0 0 0
0 0 0
0 0 0
0 0 0
0 0 0
0 0 0
0 0 0
0 0 0
0 0 0
0 0 0
0 0 0
0 0 0
0 0 0
0 0 0
0 0 0
0 0 0
0 0 0
0 0 0
0 0 0
0 0 0
0 0 0
0 0 0
0 0 0
0 0 0
0 0 0
0 0 0
0 0 0
0 0 0
0 0 0
0 0 0
0 0 0
0 0 0
0 0 0
0 0 0
0 0 0
0 0 0
0 0 0
0 0 0
0 0 0
0 0 0
0 0 0
0 0 0
0 0 0
0 0 0
0 0 0
0 0 0
0 0 0
0 0 0
0 0 0
0 0 0
0 0 0
0 0 0
0 0 0
0 0 0
0 0 0
0 0 0
0 0 0
0 0 0
0 0 0
0 0 0
0 0 0
0 0 0
0 0 0
0 0 0
0 0 0
0 0 0
0 0 0
0 0 0
0 0 0
0 0 0
0 0 0
0 0 0
0 0 0
0 0 0
0 0 0
0 0 0
0 0 0
0 0 0
0 0 0
0 0 0
0 0 0
0 0 0
0 0 0
0 0 0
0 0 0
0 0 0
0 0 0
0 0 0
0 0 0
0 0 0
0 0 0
0 0 0
0 0 0
0 0 0
0 0 0
0 0 0
0 0 0
0 0 0
0 0 0
0 0 0
0 0 0
0 0 0
0 0 0
0 0 0
0 0 0
0 0 0
0 0 0
0 0 0
0 0 0
0 0 0
0 0 0
0 0 0
0 0 0
0 0 0
0 0 0
0 0 0
0 0 0
0 0 0
0 0 0
0 0 0
0 0 0
0 0 0
0 0 0
0 0 0
0 0 0
0 0 0
0 0 0
0 0 0
0 0 0
0 0 0
0 0 0
0 0 0
0 0 0
0 0 0
0 0 0
0 0 0
0 0 0
0 0 0
0 0 0
0 0 0
0 0 0
0 0 0
0 0 0
0 0 0
0 0 0
0 0 0
0 0 0
0 0 0
0 0 0
0 0 0
0 0 0
0 0 0
0 0 0
0 0 0
0 0 0
0 0 0
0 0 0
0 0 0
0 0 0
0 0 0
0 0 0
0 0 0
0 0 0
0 0 0
0 0 0
0 0 0
0 0 0
0 0 0
0 0 0
0 0 0
0 0 0
0 0 0
0 0 0
0 0 0
0 0 0
0 0 0
0 0 0
0 0 0
0 0 0
0 0 0
0 0 0
0 0 0
0 0 0
0 0 0
0 0 0
0 0 0
0 0 0
0 0 0
0 0 0
0 0 0
0 0 0
0 0 0
0 0 0
0 0 0
0 0 0
0 0 0
0 0 0
0 0 0
0 0 0
0 0 0
0 0 0
0 0 0
0 0 0
0 0 0
0 0 0
0 0 0
0 0 0
0 0 0
0 0 0
0 0 0
0 0 0
0 0 0
0 0 0
0 0 0
0 0 0
0 0 0
0 0 0
0 0 0
0 0 0
0 0 0
0 0 0
0 0 0
0 0 0
0 0 0
0 0 0
0 0 0
0 0 0
0 0 0
0 0 0
0 0 0
0 0 0
0 0 0
0 0 0
0 0 0
0 0 0
0 0 0
0 0 0
0 0 0
0 0 0
0 0 0
0 0 0
0 0 0
0 0 0
0 0 0
0 0 0
0 0 0
0 0 0
0 0 0
0 0 0
0 0 0
0 0 0
0 0 0
0 0 0
0 0 0
0 0 0
0 0 0
0 0 0
0 0 0
0 0 0
0 0 0
0 0 0
0 0 0
0 0 0
0 0 0
0 0 0
0 0 0
0 0 0
0 0 0
0 0 0
0 0 0
0 0 0
0 0 0
0 0 0
0 0 0
0 0 0
0 0 0
0 0 0
0 0 0
0 0 0
0 0 0
0 0 0
0 0 0
0 0 0
0 0 0
0 0 0
0 0 0
0 0 0
0 0 0
0 0 0
0 0 0
0 0 0
0 0 0
0 0 0
0 0 0
0 0 0
0 0 0
0 0 0
0 0 0
0 0 0
0 0 0
0 0 0
0 0 0
0 0 0
0 0 0
0 0 0
0 0 0
0 0 0
0 0 0
0 0 0
0 0 0
0 0 0
0 0 0
0 0 0
0 0 0
-0.00207549 -0.00206279 -0.00206279
-0.00317862 -0.00315557 -0.00296422
-0.00402433 -0.00399272 -0.00345786
-0.00473813 -0.00469894 -0.00371846
-0.00538109 -0.00533482 -0.00380179
-0.00597383 -0.00592076 -0.00370886
-0.00651599 -0.00645648 -0.0034263
-0.00699339 -0.00692802 -0.00294471
-0.0073836 -0.00731335 -0.00227117
-0.00766182 -0.00758802 -0.00143565
-0.00780697 -0.00773131 -0.000491345
-0.00780697 -0.00773131 0.000491345
-0.00766182 -0.00758802 0.00143565
-0.0073836 -0.00731335 0.00227117
-0.00699339 -0.00692802 0.00294471
-0.00651599 -0.00645648 0.0034263
-0.00597383 -0.00592076 0.00370886
-0.00538109 -0.00533482 0.00380179
-0.00473813 -0.00469894 0.00371846
-0.00402433 -0.00399272 0.00345786
-0.00317862 -0.00315557 0.00296422
-0.00207549 -0.00206279 0.00206279
0 0 0
0 0 0
-0.00317862 -0.00296422 -0.00315557
-0.00488598 -0.0048977 -0.0048977
-0.00619968 -0.00635301 -0.00594076
-0.00731174 -0.00758325 -0.00654432
-0.00831908 -0.00869722 -0.00679526
-0.00925446 -0.0097357 -0.00669786
-0.0101166 -0.0106986 -0.00623103
-0.0108812 -0.0115579 -0.00538086
-0.01151 -0.0122683 -0.00416337
-0.0119604 -0.0127792 -0.00263693
-0.0121961 -0.0130472 -0.000903327
-0.0121961 -0.0130472 0.000903327
-0.0119604 -0.0127792 0.00263693
-0.01151 -0.0122683 0.00416337
-0.0108812 -0.0115579 0.00538086
-0.0101166 -0.0106986 0.00623103
-0.00925446 -0.0097357 0.00669786
-0.00831908 -0.00869722 0.00679526
-0.00731174 -0.00758325 0.00654432
-0.00619968 -0.00635301 0.00594076
-0.00488598 -0.0048977 0.0048977
-0.00317862 -0.00296422 0.00315557
0 0 0
0 0 0
-0.00402433 -0.00345786 -0.00399272
-0.00619968 -0.00594076 -0.00635301
-0.00787401 -0.00789215 -0.00789215
-0.00929762 -0.00956926 -0.00885679
-0.0105997 -0.0111065 -0.00932592
-0.0118238 -0.0125595 -0.0092901
-0.0129667 -0.0139262 -0.00871239
-0.0139925 -0.0151622 -0.00756938
-0.0148447 -0.0161955 -0.00588247
-0.0154599 -0.0169449 -0.0037365
-0.0157832 -0.0173399 -0.00128183
-0.0157832 -0.0173399 0.00128183
-0.0154599 -0.0169449 0.0037365
-0.0148447 -0.0161955 0.00588247
-0.0139925 -0.0151622 0.00756938
-0.0129667 -0.0139262 0.00871239
-0.0118238 -0.0125595 0.0092901
-0.0105997 -0.0111065 0.00932592
-0.00929762 -0.00956926 0.00885679
-0.00787401 -0.00789215 0.00789215
-0.00619968 -0.00594076 0.00635301
-0.00402433 -0.00345786 0.00399272
0 0 0
0 0 0
-0.00473813 -0.00371846 -0.00469894
-0.00731174 -0.00654432 -0.00758325
-0.00929762 -0.00885679 -0.00956926
-0.0110005 -0.0108953 -0.0108953
-0.0125803 -0.0128 -0.0116171
-0.0140916 -0.0146304 -0.0116948
-0.015528 -0.0163782 -0.0110631
-0.0168386 -0.0179799 -0.00967874
-0.0179421 -0.0193333 -0.00756148
-0.0187466 -0.0203223 -0.0048201
-0.0191721 -0.0208462 -0.00165654
-0.0191721 -0.0208462 0.00165654
-0.0187466 -0.0203223 0.0048201
-0.0179421 -0.0193333 0.00756148
-0.0168386 -0.0179799 0.00967874
-0.015528 -0.0163782 0.0110631
-0.0140916 -0.0146304 0.0116948
-0.0125803 -0.0128 0.0116171
-0.0110005 -0.0108953 0.0108953
-0.00929762 -0.00885679 0.00956926
-0.00731174 -0.00654432 0.00758325
-0.00473813 -0.00371846 0.00469894
0 0 0
0 0 0
-0.00538109 -0.00380179 -0.00533482
-0.00831908 -0.00679526 -0.00869722
-0.0105997 -0.00932592 -0.0111065
-0.0125803 -0.0116171 -0.0128
-0.0144523 -0.0138047 -0.0138047
-0.0162815 -0.0159456 -0.0140406
-0.018057 -0.0180219 -0.0134015
-0.0197076 -0.0199493 -0.0118124
-0.0211197 -0.0215952 -0.00928234
-0.0221618 -0.0228076 -0.00594092
-0.0227173 -0.023453 -0.00204594
-0.0227173 -0.023453 0.00204594
-0.0221618 -0.0228076 0.00594092
-0.0211197 -0.0215952 0.00928234
-0.0197076 -0.0199493 0.0118124
-0.018057 -0.0180219 0.0134015
-0.0162815 -0.0159456 0.0140406
-0.0144523 -0.0138047 0.0138047
-0.0125803 -0.0116171 0.0128
-0.0105997 -0.00932592 0.0111065
-0.00831908 -0.00679526 0.00869722
-0.00538109 -0.00380179 0.00533482
0 0 0
0 0 0
-0.00597383 -0.00370886 -0.00592076
-0.00925446 -0.00669786 -0.0097357
-0.0118238 -0.0092901 -0.0125595
-0.0140916 -0.0116948 -0.0146304
-0.0162815 -0.0140406 -0.0159456
-0.0184716 -0.0163786 -0.0163786
-0.0206453 -0.018681 -0.0157721
-0.0227077 -0.0208462 -0.014008
-0.0245028 -0.022715 -0.0110749
-0.0258445 -0.0241026 -0.00711845
-0.026565 -0.0248447 -0.00245685
-0.026565 -0.0248447 0.00245685
-0.0258445 -0.0241026 0.00711845
-0.0245028 -0.022715 0.0110749
-0.0227077 -0.0208462 0.014008
-0.0206453 -0.018681 0.0157721
-0.0184716 -0.0163786 0.0163786
-0.0162815 -0.0140406 0.0159456
-0.0140916 -0.0116948 0.0146304
-0.0118238 -0.0092901 0.0125595
-0.00925446 -0.00669786 0.0097357
-0.00597383 -0.00370886 0.00592076
0 0 0
0 0 0
-0.00651599 -0.0034263 -0.00645648
-0.0101166 -0.00623103 -0.0106986
-0.0129667 -0.00871239 -0.0139262
-0.015528 -0.0110631 -0.0163782
-0.018057 -0.0134015 -0.0180219
-0.0206453 -0.0157721 -0.018681
-0.0232724 -0.018141 -0.018141
-0.0258154 -0.0203969 -0.0162312
-0.0280628 -0.0223629 -0.012909
-0.0297599 -0.0238326 -0.00833201
-0.0306769 -0.0246219 -0.00288189
-0.0306769 -0.0246219 0.00288189
-0.0297599 -0.0238326 0.00833201
-0.0280628 -0.0223629 0.012909
-0.0258154 -0.0203969 0.0162312
-0.0232724 -0.018141 0.018141
-0.0206453 -0.0157721 0.018681
-0.018057 -0.0134015 0.0180219
-0.015528 -0.0110631 0.0163782
-0.0129667 -0.00871239 0.0139262
-0.0101166 -0.00623103 0.0106986
-0.00651599 -0.0034263 0.00645648
0 0 0
0 0 0
-0.00699339 -0.00294471 -0.00692802
-0.0108812 -0.00538086 -0.0115579
-0.0139925 -0.00756938 -0.0151622
-0.0168386 -0.00967874 -0.0179799
-0.0197076 -0.0118124 -0.0199493
-0.0227077 -0.014008 -0.0208462
-0.0258154 -0.0162312 -0.0203969
-0.0288735 -0.0183709 -0.0183709
-0.0316093 -0.0202511 -0.0146889
-0.0336962 -0.0216658 -0.00951658
-0.0348326 -0.0224289 -0.00329808
-0.0348326 -0.0224289 0.00329808
-0.0336962 -0.0216658 0.00951658
-0.0316093 -0.0202511 0.0146889
-0.0288735 -0.0183709 0.0183709
-0.0258154 -0.0162312 0.0203969
-0.0227077 -0.014008 0.0208462
-0.0197076 -0.0118124 0.0199493
-0.0168386 -0.00967874 0.0179799
-0.0139925 -0.00756938 0.0151622
-0.0108812 -0.00538086 0.0115579
-0.00699339 -0.00294471 0.00692802
0 0 0
0 0 0
-0.0073836 -0.00227117 -0.00731335
-0.01151 -0.00416337 -0.0122683
-0.0148447 -0.00588247 -0.0161955
-0.0179421 -0.00756148 -0.0193333
-0.0211197 -0.00928234 -0.0215952
-0.0245028 -0.0110749 -0.022715
-0.0280628 -0.012909 -0.0223629
-0.0316093 -0.0146889 -0.0202511
-0.0348213 -0.0162646 -0.0162646
-0.0373034 -0.0174574 -0.0105714
-0.0386667 -0.0181031 -0.0036697
-0.0386667 -0.0181031 0.0036697
-0.0373034 -0.0174574 0.0105714
-0.0348213 -0.0162646 0.0162646
-0.0316093 -0.0146889 0.0202511
-0.0280628 -0.012909 0.0223629
-0.0245028 -0.0110749 0.022715
-0.0211197 -0.00928234 0.0215952
-0.0179421 -0.00756148 0.0193333
-0.0148447 -0.00588247 0.0161955
-0.01151 -0.00416337 0.0122683
-0.0073836 -0.00227117 0.00731335
0 0 0
0 0 0
-0.00766182 -0.00143565 -0.00758802
-0.0119604 -0.00263693 -0.0127792
-0.0154599 -0.0037365 -0.0169449
-0.0187466 -0.0048201 -0.0203223
-0.0221618 -0.00594092 -0.0228076
-0.0258445 -0.00711845 -0.0241026
-0.0297599 -0.00833201 -0.0238326
-0.0336962 -0.00951658 -0.0216658
-0.0373034 -0.0105714 -0.0174574
-0.040116 -0.0113725 -0.0113725
-0.0416666 -0.0118069 -0.00395223
-0.0416666 -0.0118069 0.00395223
-0.040116 -0.0113725 0.0113725
-0.0373034 -0.0105714 0.0174574
-0.0336962 -0.00951658 0.0216658
-0.0297599 -0.00833201 0.0238326
-0.0258445 -0.00711845 0.0241026
-0.0221618 -0.00594092 0.0228076
-0.0187466 -0.0048201 0.0203223
-0.0154599 -0.0037365 0.0169449
-0.0119604 -0.00263693 0.0127792
-0.00766182 -0.00143565 0.00758802
0 0 0
0 0 0
-0.00780697 -0.000491345 -0.00773131
-0.0121961 -0.000903327 -0.0130472
-0.0157832 -0.00128183 -0.0173399
-0.0191721 -0.00165654 -0.0208462
-0.0227173 -0.00204594 -0.023453
-0.026565 -0.00245685 -0.0248447
-0.0306769 -0.00288189 -0.0246219
-0.0348326 -0.00329808 -0.0224289
-0.0386667 -0.0036697 -0.0181031
-0.0416666 -0.00395223 -0.0118069
-0.0433213 -0.00410554 -0.00410554
-0.0433213 -0.00410554 0.00410554
-0.0416666 -0.00395223 0.0118069
-0.0386667 -0.0036697 0.0181031
-0.0348326 -0.00329808 0.0224289
-0.0306769 -0.00288189 0.0246219
-0.026565 -0.00245685 0.0248447
-0.0227173 -0.00204594 0.023453
-0.0191721 -0.00165654 0.0208462
-0.0157832 -0.00128183 0.0173399
-0.0121961 -0.000903327 0.0130472
-0.00780697 -0.000491345 0.00773131
0 0 0
0 0 0
-0.00780697 0.000491345 -0.00773131
-0.0121961 0.000903327 -0.0130472
-0.0157832 0.00128183 -0.0173399
-0.0191721 0.00165654 -0.0208462
-0.0227173 0.00204594 -0.023453
-0.026565 0.00245685 -0.0248447
-0.0306769 0.00288189 -0.0246219
-0.0348326 0.00329808 -0.0224289
-0.0386667 0.0036697 -0.0181031
-0.0416666 0.00395223 -0.0118069
-0.0433213 0.00410554 -0.00410554
-0.0433213 0.00410554 0.00410554
-0.0416666 0.00395223 0.0118069
-0.0386667 0.0036697 0.0181031
-0.0348326 0.00329808 0.0224289
-0.0306769 0.00288189 0.0246219
-0.026565 0.00245685 0.0248447
-0.0227173 0.00204594 0.023453
-0.0191721 0.00165654 0.0208462
-0.0157832 0.00128183 0.0173399
-0.0121961 0.000903327 0.0130472
-0.00780697 0.000491345 0.00773131
0 0 0
0 0 0
-0.00766182 0.00143565 -0.00758802
-0.0119604 0.00263693 -0.0127792
-0.0154599 0.0037365 -0.0169449
-0.0187466 0.0048201 -0.0203223
-0.0221618 0.00594092 -0.0228076
-0.0258445 0.00711845 -0.0241026
-0.0297599 0.00833201 -0.0238326
-0.0336962 0.00951658 -0.0216658
-0.0373034 0.0105714 -0.0174574
-0.040116 0.0113725 -0.0113725
-0.0416666 0.0118069 -0.00395223
-0.0416666 0.0118069 0.00395223
-0.040116 0.0113725 0.0113725
-0.0373034 0.0105714 0.0174574
-0.0336962 0.00951658 0.0216658
-0.0297599 0.00833201 0.0238326
-0.0258445 0.00711845 0.0241026
-0.0221618 0.00594092 0.0228076
-0.0187466 0.0048201 0.0203223
-0.0154599 0.0037365 0.0169449
-0.0119604 0.00263693 0.0127792
-0.00766182 0.00143565 0.00758802
0 0 0
0 0 0
-0.0073836 0.00227117 -0.00731335
-0.01151 0.00416337 -0.0122683
-0.0148447 0.00588247 -0.0161955
-0.0179421 0.00756148 -0.0193333
-0.0211197 0.00928234 -0.0215952
-0.0245028 0.0110749 -0.022715
-0.0280628 0.012909 -0.0223629
-0.0316093 0.0146889 -0.0202511
-0.0348213 0.0162646 -0.0162646
-0.0373034 0.0174574 -0.0105714
-0.0386667 0.0181031 -0.0036697
-0.0386667 0.0181031 0.0036697
-0.0373034 0.0174574 0.0105714
-0.0348213 0.0162646 0.0162646
-0.0316093 0.0146889 0.0202511
-0.0280628 0.012909 0.0223629
-0.0245028 0.0110749 0.022715
-0.0211197 0.00928234 0.0215952
-0.0179421 0.00756148 0.0193333
-0.0148447 0.00588247 0.0161955
-0.01151 0.00416337 0.0122683
-0.0073836 0.00227117 0.00731335
0 0 0
0 0 0
-0.00699339 0.00294471 -0.00692802
-0.0108812 0.00538086 -0.0115579
-0.0139925 0.00756938 -0.0151622
-0.0168386 0.00967874 -0.0179799
-0.0197076 0.0118124 -0.0199493
-0.0227077 0.014008 -0.0208462
-0.0258154 0.0162312 -0.0203969
-0.0288735 0.0183709 -0.0183709
-0.0316093 0.0202511 -0.0146889
-0.0336962 0.0216658 -0.00951658
-0.0348326 0.0224289 -0.00329808
-0.0348326 0.0224289 0.00329808
-0.0336962 0.0216658 0.00951658
-0.0316093 0.0202511 0.0146889
-0.0288735 0.0183709 0.0183709
-0.0258154 0.0162312 0.0203969
-0.0227077 0.014008 0.0208462
-0.0197076 0.0118124 0.0199493
-0.0168386 0.00967874 0.0179799
-0.0139925 0.00756938 0.0151622
-0.0108812 0.00538086 0.0115579
-0.00699339 0.00294471 0.00692802
0 0 0
0 0 0
-0.00651599 0.0034263 -0.00645648
-0.0101166 0.00623103 -0.0106986
-0.0129667 0.00871239 -0.0139262
-0.015528 0.0110631 -0.0163782
-0.018057 0.0134015 -0.0180219
-0.0206453 0.0157721 -0.018681
-0.0232724 0.018141 -0.018141
-0.0258154 0.0203969 -0.0162312
-0.0280628 0.0223629 -0.012909
-0.0297599 0.0238326 -0.00833201
-0.0306769 0.0246219 -0.00288189
-0.0306769 0.0246219 0.00288189
-0.0297599 0.0238326 0.00833201
-0.0280628 0.0223629 0.012909
-0.0258154 0.0203969 0.0162312
-0.0232724 0.018141 0.018141
-0.0206453 0.0157721 0.018681
-0.018057 0.0134015 0.0180219
-0.015528 0.0110631 0.0163782
-0.0129667 0.00871239 0.0139262
-0.0101166 0.00623103 0.0106986
-0.00651599 0.0034263 0.00645648
0 0 0
0 0 0
-0.00597383 0.00370886 -0.00592076
-0.00925446 0.00669786 -0.0097357
-0.0118238 0.0092901 -0.0125595
-0.0140916 0.0116948 -0.0146304
-0.0162815 0.0140406 -0.0159456
-0.0184716 0.0163786 -0.0163786
-0.0206453 0.018681 -0.0157721
-0.0227077 0.0208462 -0.014008
-0.0245028 0.022715 -0.0110749
-0.0258445 0.0241026 -0.00711845
-0.026565 0.0248447 -0.00245685
-0.026565 0.0248447 0.00245685
-0.0258445 0.0241026 0.00711845
-0.0245028 0.022715 0.0110749
-0.0227077 0.0208462 0.014008
-0.0206453 0.018681 0.0157721
-0.0184716 0.0163786 0.0163786
-0.0162815 0.0140406 0.0159456
-0.0140916 0.0116948 0.0146304
-0.0118238 0.0092901 0.0125595
-0.00925446 0.00669786 0.0097357
-0.00597383 0.00370886 0.00592076
0 0 0
0 0 0
-0.00538109 0.00380179 -0.00533482
-0.00831908 0.00679526 -0.00869722
-0.0105997 0.00932592 -0.0111065
-0.0125803 0.0116171 -0.0128
-0.0144523 0.0138047 -0.0138047
-0.0162815 0.0159456 -0.0140406
-0.018057 0.0180219 -0.0134015
-0.0197076 0.0199493 -0.0118124
-0.0211197 0.0215952 -0.00928234
-0.0221618 0.0228076 -0.00594092
-0.0227173 0.023453 -0.00204594
-0.0227173 0.023453 0.00204594
-0.0221618 0.0228076 0.00594092
-0.0211197 0.0215952 0.00928234
-0.0197076 0.0199493 0.0118124
-0.018057 0.0180219 0.0134015
-0.0162815 0.0159456 0.0140406
-0.0144523 0.0138047 0.0138047
-0.0125803 0.0116171 0.0128
-0.0105997 0.00932592 0.0111065
-0.00831908 0.00679526 0.00869722
-0.00538109 0.00380179 0.00533482
0 0 0
0 0 0
-0.00473813 0.00371846 -0.00469894
-0.00731174 0.00654432 -0.00758325
-0.00929762 0.00885679 -0.00956926
-0.0110005 0.0108953 -0.0108953
-0.0125803 0.0128 -0.0116171
-0.0140916 0.0146304 -0.0116948
-0.015528 0.0163782 -0.0110631
-0.0168386 0.0179799 -0.00967874
-0.0179421 0.0193333 -0.00756148
-0.0187466 0.0203223 -0.0048201
-0.0191721 0.0208462 -0.00165654
-0.0191721 0.0208462 0.00165654
-0.0187466 0.0203223 0.0048201
-0.0179421 0.0193333 0.00756148
-0.0168386 0.0179799 0.00967874
-0.015528 0.0163782 0.0110631
-0.0140916 0.0146304 0.0116948
-0.0125803 0.0128 0.0116171
-0.0110005 0.0108953 0.0108953
-0.00929762 0.00885679 0.00956926
-0.00731174 0.00654432 0.00758325
-0.00473813 0.00371846 0.00469894
0 0 0
0 0 0
-0.00402433 0.00345786 -0.00399272
-0.00619968 0.00594076 -0.00635301
-0.00787401 0.00789215 -0.00789215
-0.00929762 0.00956926 -0.00885679
-0.0105997 0.0111065 -0.00932592
-0.0118238 0.0125595 -0.0092901
-0.0129667 0.0139262 -0.00871239
-0.0139925 0.0151622 -0.00756938
-0.0148447 0.0161955 -0.00588247
-0.0154599 0.0169449 -0.0037365
-0.0157832 0.0173399 -0.00128183
-0.0157832 0.0173399 0.00128183
-0.0154599 0.0169449 0.0037365
-0.0148447 0.0161955 0.00588247
-0.0139925 0.0151622 0.00756938
-0.0129667 0.0139262 0.00871239
-0.0118238 0.0125595 0.0092901
-0.0105997 0.0111065 0.00932592
-0.00929762 0.00956926 0.00885679
-0.00787401 0.00789215 0.00789215
-0.00619968 0.00594076 0.00635301
-0.00402433 0.00345786 0.00399272
0 0 0
0 0 0
-0.00317862 0.00296422 -0.00315557
-0.00488598 0.0048977 -0.0048977
-0.00619968 0.00635301 -0.00594076
-0.00731174 0.00758325 -0.00654432
-0.00831908 0.00869722 -0.00679526
-0.00925446 0.0097357 -0.00669786
-0.0101166 0.0106986 -0.00623103
-0.0108812 0.0115579 -0.00538086
-0.01151 0.0122683 -0.00416337
-0.0119604 0.0127792 -0.00263693
-0.0121961 0.0130472 -0.000903327
-0.0121961 0.0130472 0.000903327
-0.0119604 0.0127792 0.00263693
-0.01151 0.0122683 0.00416337
-0.0108812 0.0115579 0.00538086
-0.0101166 0.0106986 0.00623103
-0.00925446 0.0097357 0.00669786
-0.00831908 0.00869722 0.00679526
-0.00731174 0.00758325 0.00654432
-0.00619968 0.00635301 0.00594076
-0.00488598 0.0048977 0.0048977
-0.00317862 0.00296422 0.00315557
0 0 0
0 0 0
-0.00207549 0.00206279 -0.00206279
-0.00317862 0.00315557 -0.00296422
-0.00402433 0.00399272 -0.00345786
-0.00473813 0.00469894 -0.00371846
-0.00538109 0.00533482 -0.00380179
-0.00597383 0.00592076 -0.00370886
-0.00651599 0.00645648 -0.0034263
-0.00699339 0.00692802 -0.00294471
-0.0073836 0.00731335 -0.00227117
-0.00766182 0.00758802 -0.00143565
-0.00780697 0.00773131 -0.000491345
-0.00780697 0.00773131 0.000491345
-0.00766182 0.00758802 0.00143565
-0.0073836 0.00731335 0.00227117
-0.00699339 0.00692802 0.00294471
-0.00651599 0.00645648 0.0034263
-0.00597383 0.00592076 0.00370886
-0.00538109 0.00533482 0.00380179
-0.00473813 0.00469894 0.00371846
-0.00402433 0.00399272 0.00345786
-0.00317862 0.00315557 0.00296422
-0.00207549 0.00206279 0.00206279
0 0 0
0 0 0
0 0 0
0 0 0
0 0 0
0 0 0
0 0 0
0 0 0
0 0 0
0 0 0
0 0 0
0 0 0
0 0 0
0 0 0
0 0 0
0 0 0
0 0 0
0 0 0
0 0 0
0 0 0
0 0 0
0 0 0
0 0 0