# vtk DataFile Version 2.0 
icosahedral triangles
ASCII
DATASET POLYDATA
POINTS 80 double 
0.1875924740850798689  0.5773502691896258421  0.7946544722917661119
-0.491123473188423032  0.3568220897730899344  0.7946544722917661119
-0.491123473188423032  -0.3568220897730899344  0.7946544722917661119
0.1875924740850798689  -0.5773502691896258421  0.7946544722917661119
0.6070619982066861597  0  0.7946544722917661119
0.7946544722917661119  0.5773502691896258421  -0.1875924740850798689
0.3035309991033430799  0.9341723589627156654  0.1875924740850798689
-0.3035309991033430799  0.9341723589627156654  -0.1875924740850798689
-0.7946544722917661119  0.5773502691896258421  0.1875924740850798689
-0.982246946376845953  0  -0.1875924740850798689
-0.7946544722917661119  -0.5773502691896258421  0.1875924740850798689
-0.3035309991033430799  -0.9341723589627156654  -0.1875924740850798689
0.3035309991033430799  -0.9341723589627156654  0.1875924740850798689
0.7946544722917661119  -0.5773502691896258421  -0.1875924740850798689
0.982246946376845953  0  0.1875924740850798689
0.491123473188423032  0.3568220897730899344  -0.7946544722917661119
-0.1875924740850798689  0.5773502691896258421  -0.7946544722917661119
-0.6070619982066861597  0  -0.7946544722917661119
-0.1875924740850798689  -0.5773502691896258421  -0.7946544722917661119
0.491123473188423032  -0.3568220897730899344  -0.7946544722917661119
0.09281736743403452838  0.2856624837156744867  0.9538248695122220067
0.4985033155724598042  0.5804105780524176916  0.6439083826509193198
-0.06214087599661684974  0.762574918471785379  0.6439083826509193198
-0.242999022688589944  0.176549124247000172  0.9538248695122220067
-0.3979572661192412597  0.6534615590031112031  0.6439083826509194308
-0.7444544321041378643  0.1765491242470001443  0.6439083826509193198
-0.242999022688589944  -0.176549124247000172  0.9538248695122220067
-0.7444544321041378643  -0.1765491242470001443  0.6439083826509193198
-0.3979572661192412597  -0.6534615590031112031  0.6439083826509194308
0.09281736743403452838  -0.2856624837156744867  0.9538248695122220067
-0.0621408759966168428  -0.762574918471785379  0.6439083826509193198
0.4985033155724598597  -0.5804105780524176916  0.6439083826509193198
0.300363310509110859  0  0.9538248695122220067
0.7060492586475362042  -0.2947480943367432604  0.6439083826509194308
0.7060492586475362042  0.2947480943367432604  0.6439083826509193198
0.7988666260815706632  0.5804105780524176916  0.1579103372737394873
0.894636087358693266  0.2856624837156744867  -0.3435450721418085163
0.548138921373796717  0.762574918471785379  -0.3435450721418085163
0.3051398986852068007  0.9391240427187856898  -0.1579103372737394873
-0.004776588176095918244  0.9391240427187856898  0.3435450721418085163
0.5558676033929808025  0.7569597022994178914  0.3435450721418085163
-0.3051398986852068007  0.9391240427187856898  0.1579103372737394873
0.004776588176095918244  0.9391240427187856898  -0.3435450721418085163
-0.5558676033929808025  0.7569597022994178914  -0.3435450721418085163
-0.7988666260815706632  0.5804105780524176916  -0.1579103372737394873
-0.894636087358693266  0.2856624837156744867  0.3435450721418085163
-0.548138921373796717  0.762574918471785379  0.3435450721418085163
-0.9874534547927278361  0  0.1579103372737394873
-0.8916839935156052332  0.2947480943367432604  -0.3435450721418085163
-0.8916839935156051222  -0.2947480943367432604  -0.3435450721418085163
-0.7988666260815706632  -0.5804105780524176916  -0.1579103372737394873
-0.548138921373796606  -0.762574918471785379  0.3435450721418085163
-0.894636087358693266  -0.2856624837156744867  0.3435450721418085163
-0.3051398986852068007  -0.9391240427187856898  0.1579103372737394873
-0.5558676033929808025  -0.7569597022994178914  -0.3435450721418085163
0.004776588176095918244  -0.9391240427187856898  -0.3435450721418085163
0.3051398986852068007  -0.9391240427187856898  -0.1579103372737394873
0.5558676033929808025  -0.7569597022994178914  0.3435450721418085163
-0.004776588176095918244  -0.9391240427187856898  0.3435450721418085163
0.7988666260815706632  -0.5804105780524176916  0.1579103372737394873
0.548138921373796606  -0.762574918471785379  -0.3435450721418085163
0.894636087358693266  -0.2856624837156744867  -0.3435450721418085163
0.9874534547927278361  0  -0.1579103372737394873
0.8916839935156052332  0.2947480943367432604  0.3435450721418085163
0.8916839935156051222  -0.2947480943367432604  0.3435450721418085163
0.242999022688589944  0.176549124247000172  -0.9538248695122220067
0.3979572661192412597  0.6534615590031112031  -0.6439083826509194308
0.7444544321041378643  0.1765491242470001443  -0.6439083826509193198
-0.09281736743403452838  0.2856624837156744867  -0.9538248695122220067
-0.4985033155724598042  0.5804105780524176916  -0.6439083826509193198
0.06214087599661684974  0.762574918471785379  -0.6439083826509193198
-0.300363310509110859  0  -0.9538248695122220067
-0.7060492586475362042  -0.2947480943367432604  -0.6439083826509194308
-0.7060492586475362042  0.2947480943367432604  -0.6439083826509193198
-0.09281736743403452838  -0.2856624837156744867  -0.9538248695122220067
0.0621408759966168428  -0.762574918471785379  -0.6439083826509193198
-0.4985033155724598597  -0.5804105780524176916  -0.6439083826509193198
0.242999022688589944  -0.176549124247000172  -0.9538248695122220067
0.7444544321041378643  -0.1765491242470001443  -0.6439083826509193198
0.3979572661192412597  -0.6534615590031112031  -0.6439083826509194308
POINT_DATA 80
SCALARS area double 1
LOOKUP_TABLE default
0.1798534997924781387
0.1798534997924782775
0.1798534997924782775
0.1798534997924781387
0.179853499792478444
0.1798534997924781942
0.1798534997924783607
0.1798534997924783607
0.1798534997924781942
0.1798534997924782497
0.1798534997924781942
0.1798534997924783607
0.1798534997924783607
0.1798534997924781942
0.1798534997924782497
0.1798534997924782775
0.1798534997924781387
0.179853499792478444
0.1798534997924781387
0.1798534997924782775
0.1494883436418268374
0.1494883436418267542
0.1494883436418268374
0.1494883436418268097
0.1494883436418268097
0.1494883436418268929
0.1494883436418268374
0.1494883436418268929
0.1494883436418268374
0.1494883436418268374
0.1494883436418268374
0.1494883436418268374
0.1494883436418268374
0.1494883436418267264
0.1494883436418267542
0.1494883436418268929
0.1494883436418267264
0.1494883436418267542
0.1494883436418267819
0.1494883436418268652
0.1494883436418268929
0.1494883436418267819
0.1494883436418268652
0.1494883436418268929
0.1494883436418268929
0.1494883436418267264
0.1494883436418267542
0.1494883436418268097
0.1494883436418268097
0.1494883436418268097
0.1494883436418268929
0.1494883436418267264
0.1494883436418267264
0.1494883436418267819
0.1494883436418268929
0.1494883436418268374
0.1494883436418267819
0.1494883436418268929
0.1494883436418268374
0.1494883436418268929
0.1494883436418267264
0.1494883436418267264
0.1494883436418268097
0.1494883436418268097
0.1494883436418268097
0.1494883436418268097
0.1494883436418268097
0.1494883436418268929
0.1494883436418268374
0.1494883436418267542
0.1494883436418268374
0.1494883436418268374
0.1494883436418267264
0.1494883436418267542
0.1494883436418268374
0.1494883436418268374
0.1494883436418268374
0.1494883436418268374
0.1494883436418268929
0.1494883436418268374
