# vtk DataFile Version 2.0 
icosahedral triangles
ASCII
DATASET POLYDATA
POINTS 1280 double 
0.1875924740850799244  0.5773502691896258421  0.7946544722917661119
-0.491123473188422921  0.3568220897730899344  0.7946544722917662229
-0.4911234731884229765  -0.3568220897730899344  0.7946544722917662229
0.1875924740850799244  -0.5773502691896258421  0.7946544722917662229
0.6070619982066861597  0  0.7946544722917661119
0.7946544722917662229  0.5773502691896257311  -0.1875924740850798411
0.3035309991033430799  0.9341723589627157764  0.1875924740850798966
-0.3035309991033430799  0.9341723589627157764  -0.1875924740850798966
-0.7946544722917662229  0.5773502691896257311  0.1875924740850798411
-0.982246946376846064  0  -0.1875924740850798966
-0.7946544722917662229  -0.5773502691896257311  0.1875924740850798966
-0.3035309991033430799  -0.9341723589627157764  -0.1875924740850798966
0.3035309991033430799  -0.9341723589627157764  0.1875924740850798966
0.7946544722917662229  -0.5773502691896257311  -0.1875924740850798966
0.982246946376846064  0  0.1875924740850798966
0.491123473188422921  0.3568220897730899344  -0.7946544722917662229
-0.1875924740850799244  0.5773502691896258421  -0.7946544722917661119
-0.6070619982066861597  0  -0.7946544722917661119
-0.1875924740850799244  -0.5773502691896258421  -0.7946544722917662229
0.4911234731884229765  -0.3568220897730899344  -0.7946544722917662229
0.09297372113179072639  0.2861436909172353493  0.9536653896032767364
0.4980650057296628352  0.5804597369019124375  0.6442031852632160716
-0.06175738103823959907  0.7623570567549199373  0.6442031852632160716
-0.2434083619835825385  0.1768465266531959734  0.9536653896032767364
-0.3981394641536128987  0.6530598924908805891  0.6442031852632160716
-0.7441287268392660081  0.1768465266531959734  0.6442031852632160716
-0.2434083619835825385  -0.1768465266531959734  0.9536653896032767364
-0.7441287268392660081  -0.1768465266531959734  0.6442031852632160716
-0.3981394641536128987  -0.6530598924908805891  0.6442031852632160716
0.09297372113179075415  -0.2861436909172353493  0.9536653896032767364
-0.06175738103823959907  -0.7623570567549199373  0.6442031852632160716
0.4980650057296628352  -0.5804597369019124375  0.6442031852632160716
0.3008692817035835687  0  0.9536653896032767364
0.7059605663014556498  -0.2943160459846771437  0.6442031852632160716
0.7059605663014556498  0.2943160459846770882  0.6442031852632160716
0.7989342874332464595  0.5804597369019124375  0.1573864612960509946
0.8945633676910577092  0.2861436909172352938  -0.3433339035596325028
0.5485741050054047108  0.7623570567549199373  -0.3433339035596325028
0.3051657430218221445  0.9392035834081160495  -0.1573864612960509946
-0.004296461318238581871  0.9392035834081160495  0.3433339035596325028
0.5555259254496640597  0.7573062635551084387  0.3433339035596325584
-0.3051657430218221445  0.9392035834081160495  0.1573864612960509946
0.004296461318238581871  0.9392035834081160495  -0.3433339035596325028
-0.5555259254496640597  0.7573062635551084387  -0.3433339035596325584
-0.7989342874332464595  0.5804597369019124375  -0.1573864612960509946
-0.8945633676910577092  0.2861436909172352938  0.3433339035596325028
-0.5485741050054047108  0.7623570567549199373  0.3433339035596325028
-0.9875370888228485189  0  0.1573864612960509668
-0.8919080085650371581  0.2943160459846770882  -0.3433339035596324473
-0.8919080085650371581  -0.2943160459846770882  -0.3433339035596324473
-0.7989342874332464595  -0.5804597369019125486  -0.1573864612960509946
-0.5485741050054047108  -0.7623570567549199373  0.3433339035596324473
-0.8945633676910577092  -0.2861436909172352938  0.3433339035596325028
-0.3051657430218222  -0.9392035834081160495  0.1573864612960509946
-0.5555259254496639487  -0.7573062635551084387  -0.3433339035596325584
0.004296461318238581871  -0.9392035834081160495  -0.3433339035596325584
0.3051657430218222  -0.9392035834081160495  -0.1573864612960509946
0.5555259254496639487  -0.7573062635551084387  0.3433339035596325584
-0.004296461318238581871  -0.9392035834081160495  0.3433339035596325584
0.7989342874332464595  -0.5804597369019125486  0.1573864612960509946
0.5485741050054047108  -0.7623570567549199373  -0.3433339035596324473
0.8945633676910577092  -0.2861436909172352938  -0.3433339035596325028
0.9875370888228485189  0  -0.1573864612960509668
0.8919080085650371581  0.2943160459846770882  0.3433339035596324473
0.8919080085650371581  -0.2943160459846770882  0.3433339035596324473
0.2434083619835825385  0.1768465266531959734  -0.9536653896032767364
0.3981394641536128987  0.6530598924908805891  -0.6442031852632160716
0.7441287268392660081  0.1768465266531959734  -0.6442031852632160716
-0.09297372113179072639  0.2861436909172353493  -0.9536653896032767364
-0.4980650057296628352  0.5804597369019124375  -0.6442031852632160716
0.06175738103823959907  0.7623570567549199373  -0.6442031852632160716
-0.3008692817035835687  0  -0.9536653896032767364
-0.7059605663014556498  -0.2943160459846771437  -0.6442031852632160716
-0.7059605663014556498  0.2943160459846770882  -0.6442031852632160716
-0.09297372113179075415  -0.2861436909172353493  -0.9536653896032767364
0.06175738103823959907  -0.7623570567549199373  -0.6442031852632160716
-0.4980650057296628352  -0.5804597369019124375  -0.6442031852632160716
0.2434083619835825385  -0.1768465266531959734  -0.9536653896032767364
0.7441287268392660081  -0.1768465266531959734  -0.6442031852632160716
0.3981394641536128987  -0.6530598924908805891  -0.6442031852632160716
0.04623160809289506706  0.1422862591246413511  0.9887452952492166158
0.265326765879112747  0.3027122304683818044  0.9154053816932625764
-0.03672407790087007379  0.4008544988762669514  0.9154053816932625764
0.468075382317449773  0.4500177228050805667  0.7605192210784043061
0.6199830999558055833  0.5591411184695675995  0.5504381576578702973
0.3845905823627795428  0.7069575172299387145  0.5935496211690636237
-0.1141671582082991881  0.6391997922065825177  0.7605192210784044171
0.1043988856170133817  0.797997318223555685  0.5935496211690637347
-0.1729219607027779881  0.8167715899202887542  0.5504381576578702973
0.2296904971228094228  0.7069146616404702321  0.668964824702477312
0.009699750302305727365  0.547082028307714241  0.8370228008523963315
0.3137194851977689325  0.448300028396671657  0.8370228008523963315
-0.1210359213417640106  0.08793774427110322145  0.9887452952492166158
-0.2059059596300060746  0.3458839732567244862  0.9154053816932625764
-0.3925836474166202184  0.08894417883186638007  0.9154053816932625764
-0.2833490399374352098  0.584229266587040108  0.7605192210784044171
-0.3401894901374371005  0.7624230750667505552  0.5504381576578704083
-0.5535115276787195837  0.584229266587040108  0.5935496211690638457
-0.643194719678436222  0.08894417883186640783  0.7605192210784044171
-0.7266795196331065076  0.3458839732567244862  0.5935496211690636237
-0.8302317674762387245  0.08793774427110322145  0.5504381576578702973
-0.6013375283603749066  0.4368972880394421665  0.668964824702477312
-0.5173085402854153969  0.1782826547956434804  0.8370228008523963315
-0.329414010869286622  0.436897288039442111  0.8370228008523963315
-0.1210359213417640106  -0.08793774427110322145  0.9887452952492166158
-0.3925836474166202184  -0.08894417883186638007  0.9154053816932625764
-0.2059059596300060746  -0.3458839732567244862  0.9154053816932625764
-0.643194719678436222  -0.08894417883186640783  0.7605192210784044171
-0.8302317674762387245  -0.08793774427110322145  0.5504381576578702973
-0.7266795196331063966  -0.3458839732567245973  0.5935496211690638457
-0.2833490399374352098  -0.584229266587040108  0.7605192210784044171
-0.5535115276787195837  -0.584229266587040108  0.5935496211690638457
-0.3401894901374371005  -0.7624230750667505552  0.5504381576578704083
-0.6013375283603749066  -0.436897288039442111  0.668964824702477201
-0.329414010869286622  -0.436897288039442111  0.8370228008523963315
-0.5173085402854153969  -0.1782826547956434804  0.8370228008523963315
0.04623160809289506706  -0.1422862591246413511  0.9887452952492166158
-0.03672407790087007379  -0.4008544988762669514  0.9154053816932625764
0.2653267658791128025  -0.3027122304683818044  0.9154053816932625764
-0.1141671582082991604  -0.6391997922065826288  0.7605192210784043061
-0.1729219607027779881  -0.8167715899202887542  0.5504381576578702973
0.1043988856170133817  -0.797997318223555685  0.5935496211690637347
0.4680753823174498285  -0.4500177228050805667  0.7605192210784044171
0.3845905823627795428  -0.7069575172299386034  0.5935496211690637347
0.6199830999558055833  -0.5591411184695677106  0.5504381576578702973
0.229690497122809395  -0.7069146616404704542  0.668964824702477201
0.3137194851977689325  -0.4483000283966717125  0.8370228008523963315
0.009699750302305723895  -0.547082028307714241  0.8370228008523963315
0.1496086264977378733  0  0.9887452952492166158
0.3698869190683836128  -0.1587975260169730563  0.9154053816932625764
0.3698869190683836128  0.1587975260169730563  0.9154053816932625764
0.5726355355067207498  -0.306103018353671763  0.7605192210784044171
0.7233601183606483964  -0.4168548593449262207  0.5504381576578702973
0.7912015793320332779  -0.1473054923366986513  0.5935496211690636237
0.5726355355067207498  0.306103018353671763  0.7605192210784044171
0.7912015793320332779  0.1473054923366986513  0.5935496211690636237
0.7233601183606482854  0.4168548593449262762  0.5504381576578704083
0.7432940624751309677  0  0.668964824702477201
0.5233033156546272879  0.1598326333327560189  0.8370228008523963315
0.523303315654627399  -0.1598326333327560189  0.8370228008523963315
0.7695917264535435676  0.5591411184695675995  0.3083663149743423038
0.8895587453018053425  0.4500177228050805112  0.07854481407710769969
0.7028810575151912543  0.7069575172299386034  0.07854481407710769969
0.9374212011252842647  0.3027122304683818044  -0.1720662581847081374
0.9050360807251076611  0.1422862591246413511  -0.400829531160132535
0.8023399572546420222  0.4008544988762669514  -0.4422287459259924836
[...]
POINT_DATA 1280
SCALARS area double 1
LOOKUP_TABLE default
0.01180512243155482435
0.01180512243155482088
0.01180512243155482435
0.01180512243155480701
0.01180512243155482435
0.01180512243155482088
0.01180512243155483129
0.01180512243155483129
0.01180512243155482088
0.01180512243155482088
0.01180512243155481394
0.01180512243155483129
0.01180512243155483129
0.01180512243155481394
0.01180512243155482088
0.01180512243155482088
0.01180512243155482435
0.01180512243155482435
0.01180512243155480701
0.01180512243155482435
0.00973652150239681137
0.009736521502396830452
0.009736521502396814839
0.009736521502396823513
0.009736521502396804431
0.009736521502396816574
0.009736521502396821778
0.009736521502396816574
0.009736521502396806166
0.009736521502396821778
0.009736521502396814839
0.009736521502396830452
0.009736521502396825248
0.009736521502396813105
0.009736521502396820044
0.009736521502396802696
0.009736521502396828717
0.009736521502396816574
0.009736521502396830452
0.009736521502396820044
0.009736521502396828717
0.009736521502396830452
0.009736521502396820044
0.009736521502396828717
0.009736521502396802696
0.009736521502396828717
0.009736521502396816574
0.009736521502396830452
0.009736521502396818309
0.009736521502396818309
0.009736521502396802696
0.009736521502396823513
0.009736521502396828717
0.009736521502396825248
0.009736521502396837391
0.009736521502396820044
0.009736521502396825248
0.009736521502396837391
0.009736521502396820044
0.009736521502396802696
0.009736521502396823513
0.009736521502396828717
0.009736521502396830452
0.009736521502396818309
0.009736521502396818309
0.009736521502396823513
0.009736521502396804431
0.009736521502396816574
0.00973652150239681137
0.009736521502396830452
0.009736521502396814839
0.009736521502396825248
0.009736521502396813105
0.009736521502396820044
0.009736521502396821778
0.009736521502396814839
0.009736521502396830452
0.009736521502396821778
0.009736521502396816574
0.009736521502396806166
0.009244025978282943701
0.009349871074884445049
0.009349871074884457192
0.009349871074884462396
0.009244025978282940231
0.009349871074884445049
0.009349871074884455457
0.009349871074884445049
0.00924402597828294717
0.01119950680470365237
0.01119950680470365757
0.01119950680470366104
0.00924402597828295064
0.009349871074884445049
0.009349871074884443314
0.009349871074884445049
0.009244025978282935027
0.009349871074884464131
0.009349871074884457192
0.009349871074884455457
0.009244025978282933292
0.01119950680470365237
0.01119950680470365931
0.01119950680470364716
0.009244025978282952374
0.009349871074884443314
0.009349871074884443314
0.009349871074884457192
0.009244025978282935027
0.009349871074884462396
0.009349871074884445049
0.009349871074884464131
0.009244025978282935027
0.01119950680470364196
0.01119950680470364716
0.01119950680470365931
0.009244025978282943701
0.009349871074884457192
0.009349871074884436375
0.009349871074884450253
0.00924402597828294717
0.009349871074884446784
0.009349871074884448519
0.009349871074884446784
0.009244025978282933292
0.01119950680470365931
0.01119950680470365063
0.01119950680470365584
0.00924402597828295064
0.009349871074884445049
0.009349871074884445049
0.009349871074884462396
0.009244025978282936762
0.009349871074884455457
0.009349871074884462396
0.009349871074884455457
0.00924402597828294717
0.01119950680470362114
0.01119950680470364716
0.01119950680470365931
0.009244025978282943701
0.009349871074884439845
0.009349871074884458927
0.009349871074884448519
0.009244025978282943701
0.009349871074884448519
0.009349871074884453723
0.009349871074884451988
0.009244025978282943701
0.01119950680470364196
0.01119950680470364023
0.01119950680470365931
0.009244025978282935027
0.00934987107488444158
0.009349871074884448519
0.009349871074884445049
0.009244025978282962783
0.00934987107488444158
0.009349871074884451988
0.009349871074884445049
0.009244025978282938497
0.0111995068047036541
0.01119950680470366278
0.0111995068047036489
0.009244025978282935027
0.00934987107488444158
0.009349871074884448519
0.009349871074884445049
0.009244025978282962783
0.00934987107488444158
0.009349871074884451988
0.009349871074884445049
0.009244025978282938497
0.0111995068047036541
0.01119950680470366278
0.0111995068047036489
0.009244025978282943701
0.009349871074884439845
0.009349871074884458927
0.009349871074884448519
0.009244025978282943701
0.009349871074884448519
0.009349871074884453723
0.009349871074884451988
0.009244025978282943701
0.01119950680470364196
0.01119950680470364023
0.01119950680470365931
0.009244025978282971456
0.009349871074884460662
0.009349871074884460662
0.009349871074884443314
0.00924402597828295064
0.009349871074884450253
0.009349871074884445049
0.009349871074884450253
0.009244025978282943701
0.0111995068047036489
0.01119950680470365757
0.01119950680470365757
0.009244025978282964517
0.009349871074884455457
0.00934987107488444158
0.009349871074884443314
0.00924402597828294717
0.009349871074884464131
0.00934987107488444158
0.009349871074884448519
0.009244025978282943701
0.01119950680470365237
0.01119950680470365237
0.01119950680470364023
0.009244025978282948905
0.009349871074884445049
0.00934987107488444158
0.009349871074884451988
0.009244025978282938497
0.009349871074884443314
0.009349871074884445049
0.009349871074884439845
0.009244025978282962783
0.01119950680470366278
0.01119950680470364716
0.01119950680470366278
0.009244025978282948905
0.009349871074884445049
0.00934987107488444158
0.009349871074884451988
0.009244025978282938497
0.009349871074884443314
0.009349871074884445049
0.009349871074884439845
0.009244025978282962783
0.01119950680470366278
0.01119950680470364716
0.01119950680470366278
0.009244025978282964517
0.009349871074884455457
0.00934987107488444158
0.009349871074884443314
0.00924402597828294717
0.009349871074884464131
0.00934987107488444158
0.009349871074884448519
0.009244025978282943701
0.01119950680470365237
0.01119950680470365237
0.01119950680470364023
0.009244025978282971456
0.009349871074884460662
0.009349871074884460662
0.009349871074884443314
0.00924402597828295064
0.009349871074884450253
0.009349871074884445049
0.009349871074884450253
0.009244025978282943701
0.0111995068047036489
0.01119950680470365757
0.01119950680470365757
0.00924402597828295064
0.009349871074884445049
0.009349871074884443314
0.009349871074884445049
0.009244025978282935027
0.009349871074884464131
0.009349871074884457192
0.009349871074884455457
0.009244025978282933292
0.01119950680470365237
0.01119950680470365931
0.01119950680470364716
0.009244025978282943701
0.009349871074884445049
0.009349871074884457192
0.009349871074884462396
0.009244025978282940231
0.009349871074884445049
0.009349871074884455457
0.009349871074884445049
0.00924402597828294717
0.01119950680470365237
0.01119950680470365757
0.01119950680470366104
0.00924402597828295064
0.009349871074884445049
0.009349871074884445049
0.009349871074884462396
0.009244025978282936762
0.009349871074884455457
0.009349871074884462396
0.009349871074884455457
0.00924402597828294717
0.01119950680470362114
0.01119950680470364716
0.01119950680470365931
0.009244025978282943701
0.009349871074884457192
0.009349871074884436375
0.009349871074884450253
0.00924402597828294717
0.009349871074884446784
0.009349871074884448519
0.009349871074884446784
0.009244025978282933292
0.01119950680470365931
0.01119950680470365063
0.01119950680470365584
0.009244025978282952374
0.009349871074884443314
0.009349871074884443314
0.009349871074884457192
0.009244025978282935027
0.009349871074884462396
0.009349871074884445049
0.009349871074884464131
0.009244025978282935027
0.01119950680470364196
0.01119950680470364716
0.01119950680470365931
0.009123237199588754565
0.009154876751550021161
0.009154876751550021161
0.009233967500452260405
0.009253342914884403816
0.009259683241580369747
0.009233967500452263874
0.009259683241580383625
0.009253342914884407286
0.009609210313867935088
0.009635932840493632856
0.009635932840493644999
0.009253342914884421164
0.00923396750045225867
0.009259683241580369747
0.009154876751550012487
0.00912323719958875283
0.009154876751550012487
0.009259683241580383625
0.009233967500452265609
0.009253342914884421164
0.009635932840493632856
0.009609210313867912537
0.009635932840493644999
0.00925334291488441249
0.009259683241580392299
0.009233967500452272548
0.009259683241580394034
0.009253342914884421164
0.009233967500452276017
0.009154876751550022895
0.009154876751550022895
0.009123237199588758034
0.009635932840493643264
0.009635932840493648469
0.009609210313867928149
0.01104937035136672151
0.01106026865865663081
0.01106026865865660999
0.0110602686586566152
0.01104937035136672324
0.01106026865865662387
0.01106026865865662734
0.01106026865865663081
0.01104937035136673365
0.01164671131359082401
0.01164671131359083789
0.01164671131359083789
0.009123237199588754565
0.009154876751550012487
0.009154876751550019426
0.009233967500452256935
0.009253342914884405551
0.009259683241580387095
0.009233967500452263874
0.009259683241580380156
0.00925334291488441249
0.009609210313867926415
0.00963593284049363806
0.009635932840493636325
0.009253342914884405551
0.009233967500452243057
0.009259683241580373217
0.009154876751550014222
0.009123237199588747626
0.009154876751550019426
0.00925968324158038536
0.009233967500452263874
0.009253342914884422898
0.00963593284049363806
0.009609210313867912537
0.00963593284049363806
0.009253342914884422898
0.009259683241580388829
0.009233967500452262139
0.009259683241580374952
0.009253342914884419429
0.009233967500452262139
0.009154876751550007283
0.009154876751550019426
0.009123237199588764973
0.009635932840493634591
0.009635932840493643264
0.00960921031386792468
0.01104937035136674579
0.01106026865865662734
0.0110602686586566204
0.0110602686586566256
0.01104937035136673365
0.01106026865865662387
0.01106026865865661173
0.01106026865865663428
0.01104937035136673538
0.01164671131359084136
0.01164671131359082401
0.0116467113135908483
0.009123237199588754565
0.009154876751550019426
0.009154876751550019426
0.009233967500452263874
0.00925334291488441249
0.00925968324158038536
0.009233967500452256935
0.009259683241580388829
0.009253342914884405551
0.009609210313867931619
0.00963593284049363806
0.009635932840493636325
0.009253342914884422898
0.009233967500452251731
0.009259683241580387095
0.009154876751550007283
0.009123237199588758034
0.009154876751550017691
0.009259683241580374952
0.009233967500452263874
0.009253342914884419429
0.009635932840493636325
0.009609210313867919476
0.009635932840493643264
0.009253342914884417694
0.009259683241580373217
0.009233967500452262139
0.00925968324158038536
0.009253342914884419429
0.009233967500452262139
0.009154876751550022895
0.009154876751550019426
0.00912323719958875283
0.00963593284049363806
0.00963593284049364153
0.00960921031386792121
0.01104937035136674579
0.0110602686586566204
0.01106026865865662734
0.01106026865865662213
0.01104937035136673018
0.01106026865865663428
0.0110602686586566256
0.01106026865865662387
0.01104937035136673365
0.01164671131359084136
0.01164671131359084309
0.01164671131359082228
0.009123237199588754565
0.009154876751550021161
0.009154876751550022895
0.009233967500452265609
0.009253342914884407286
0.009259683241580383625
0.009233967500452260405
0.009259683241580369747
0.009253342914884403816
0.009609210313867935088
0.009635932840493650203
0.009635932840493632856
0.009253342914884414225
0.009233967500452277752
0.009259683241580400972
0.009154876751550022895
0.009123237199588759769
0.009154876751550022895
0.009259683241580392299
0.009233967500452276017
0.009253342914884421164
0.009635932840493643264
0.009609210313867917741
0.009635932840493648469
0.00925334291488441596
0.009259683241580369747
0.00923396750045225867
0.00925968324158038536
0.009253342914884421164
0.009233967500452263874
0.009154876751550012487
0.009154876751550017691
0.009123237199588763238
0.009635932840493625917
0.009635932840493644999
0.009609210313867912537
0.01104937035136673365
0.01106026865865661866
0.01106026865865662907
0.01106026865865662907
0.01104937035136673538
0.01106026865865664122
0.01106026865865663081
0.01106026865865662387
0.01104937035136672324
0.01164671131359082228
0.01164671131359083789
0.01164671131359083789
0.009123237199588763238
0.009154876751550022895
0.009154876751550021161
0.009233967500452262139
0.009253342914884409021
0.009259683241580381891
0.009233967500452262139
0.009259683241580374952
0.009253342914884409021
0.00960921031386792468
0.009635932840493634591
0.009635932840493643264
0.009253342914884410755
0.009233967500452262139
0.009259683241580381891
0.009154876751550009017
0.009123237199588758034
0.009154876751550031569
0.009259683241580368013
0.009233967500452263874
0.009253342914884428103
0.009635932840493632856
0.009609210313867928149
0.009635932840493627652
0.009253342914884414225
0.009259683241580381891
0.009233967500452262139
0.009259683241580368013
0.009253342914884428103
0.009233967500452262139
0.009154876751550009017
0.009154876751550029834
0.009123237199588759769
0.009635932840493632856
0.009635932840493625917
0.009609210313867928149
0.01104937035136675447
0.01106026865865660999
0.01106026865865660999
0.01106026865865664295
0.01104937035136673712
0.01106026865865662734
0.01106026865865664469
0.0110602686586566256
0.01104937035136673712
0.01164671131359083268
0.01164671131359086217
0.01164671131359086217
0.009123237199588764973
0.009154876751550021161
0.009154876751550026365
0.0092339675004522552
0.00925334291488441249
0.00925968324158038536
0.009233967500452282956
0.009259683241580390564
0.009253342914884429837
0.009609210313867902128
0.009635932840493643264
0.009635932840493634591
0.009253342914884424633
0.009233967500452265609
0.009259683241580394034
0.009154876751550014222
0.00912323719958875283
0.009154876751550010752
0.00925968324158038536
0.009233967500452262139
0.009253342914884422898
0.00963593284049363806
0.009609210313867942027
0.009635932840493651938
0.009253342914884419429
0.009259683241580381891
0.009233967500452262139
0.009259683241580383625
0.009253342914884422898
0.009233967500452269078
0.009154876751550022895
0.009154876751550014222
0.009123237199588758034
0.009635932840493653673
0.009635932840493648469
0.009609210313867926415
0.01104937035136670936
0.01106026865865663254
0.01106026865865663081
0.01106026865865662213
0.01104937035136672498
0.01106026865865661866
0.01106026865865661346
0.01106026865865664122
0.01104937035136673018
0.01164671131359084136
0.01164671131359084483
0.01164671131359082748
0.009123237199588764973
0.009154876751550021161
0.00915487675155002463
0.009233967500452265609
0.009253342914884414225
0.009259683241580376686
0.009233967500452272548
0.009259683241580374952
0.009253342914884422898
0.00960921031386792121
0.009635932840493639795
0.009635932840493648469
0.009253342914884409021
0.00923396750045225867
0.009259683241580387095
0.009154876751550010752
0.009123237199588761503
0.009154876751550029834
0.009259683241580371482
0.009233967500452265609
0.009253342914884421164
0.009635932840493653673
0.009609210313867917741
0.009635932840493643264
0.009253342914884409021
0.009259683241580395768
0.009233967500452279487
0.009259683241580381891
0.00925334291488441596
0.009233967500452262139
0.009154876751550015956
0.009154876751550022895
0.009123237199588738952
0.009635932840493643264
0.009635932840493653673
0.009609210313867931619
0.01104937035136674579
0.0110602686586566204
0.01106026865865661346
0.01106026865865663601
0.01104937035136674232
0.01106026865865662907
0.01106026865865661693
0.01106026865865663775
0.01104937035136673018
0.01164671131359083095
0.01164671131359083962
0.01164671131359083442
0.009123237199588764973
0.009154876751550021161
0.00915487675155002463
0.009233967500452265609
0.009253342914884414225
0.009259683241580376686
0.009233967500452272548
0.009259683241580374952
0.009253342914884422898
0.00960921031386792121
0.009635932840493639795
0.009635932840493648469
0.009253342914884409021
0.00923396750045225867
0.009259683241580387095
0.009154876751550010752
0.009123237199588761503
0.009154876751550029834
0.009259683241580371482
0.009233967500452265609
0.009253342914884421164
0.009635932840493653673
0.009609210313867917741
0.009635932840493643264
0.009253342914884409021
0.009259683241580395768
0.009233967500452279487
0.009259683241580381891
0.00925334291488441596
0.009233967500452262139
0.009154876751550015956
0.009154876751550022895
0.009123237199588738952
0.009635932840493643264
0.009635932840493653673
0.009609210313867931619
0.01104937035136674579
0.0110602686586566204
0.01106026865865661346
0.01106026865865663601
0.01104937035136674232
0.01106026865865662907
0.01106026865865661693
0.01106026865865663775
0.01104937035136673018
0.01164671131359083095
0.01164671131359083962
0.01164671131359083442
0.009123237199588764973
0.009154876751550021161
0.009154876751550026365
0.0092339675004522552
0.00925334291488441249
0.00925968324158038536
0.009233967500452282956
0.009259683241580390564
0.009253342914884429837
0.009609210313867902128
0.009635932840493643264
0.009635932840493634591
0.009253342914884424633
0.009233967500452265609
0.009259683241580394034
0.009154876751550014222
0.00912323719958875283
0.009154876751550010752
0.00925968324158038536
0.009233967500452262139
0.009253342914884422898
0.00963593284049363806
0.009609210313867942027
0.009635932840493651938
0.009253342914884419429
0.009259683241580381891
0.009233967500452262139
0.009259683241580383625
0.009253342914884422898
0.009233967500452269078
0.009154876751550022895
0.009154876751550014222
0.009123237199588758034
0.009635932840493653673
0.009635932840493648469
0.009609210313867926415
0.01104937035136670936
0.01106026865865663254
0.01106026865865663081
0.01106026865865662213
0.01104937035136672498
0.01106026865865661866
0.01106026865865661346
0.01106026865865664122
0.01104937035136673018
0.01164671131359084136
0.01164671131359084483
0.01164671131359082748
0.009123237199588756299
0.009154876751550029834
0.009154876751550036773
0.009233967500452265609
0.009253342914884402082
0.009259683241580381891
0.009233967500452265609
0.009259683241580380156
0.009253342914884409021
0.00960921031386792121
0.009635932840493639795
0.009635932840493639795
0.00925334291488441596
0.009233967500452263874
0.009259683241580366278
0.009154876751550009017
0.00912323719958875283
0.009154876751550029834
0.009259683241580376686
0.009233967500452272548
0.009253342914884426368
0.009635932840493646734
0.00960921031386792468
0.00963593284049363806
0.00925334291488441596
0.009259683241580373217
0.009233967500452262139
0.009259683241580376686
0.009253342914884426368
0.009233967500452276017
0.009154876751550009017
0.009154876751550029834
0.009123237199588758034
0.009635932840493644999
0.00963593284049363806
0.009609210313867912537
0.01104937035136673712
0.01106026865865660479
0.01106026865865660479
0.01106026865865662734
0.01104937035136672845
0.01106026865865662734
0.01106026865865662213
0.01106026865865662907
0.01104937035136672845
0.01164671131359084136
0.01164671131359083442
0.01164671131359083789
0.009123237199588763238
0.009154876751550026365
0.009154876751550019426
0.009233967500452284691
0.009253342914884426368
0.009259683241580390564
0.009233967500452253466
0.00925968324158038536
0.00925334291488441249
0.009609210313867910802
0.009635932840493634591
0.00963593284049363806
0.009253342914884421164
0.009233967500452260405
0.009259683241580383625
0.009154876751550022895
0.009123237199588758034
0.009154876751550015956
0.009259683241580383625
0.009233967500452269078
0.009253342914884421164
0.009635932840493644999
0.00960921031386792468
0.009635932840493636325
0.009253342914884426368
0.00925968324158038536
0.009233967500452265609
0.009259683241580387095
0.009253342914884422898
0.009233967500452262139
0.009154876751550019426
0.009154876751550010752
0.009123237199588758034
0.00963593284049363806
0.009635932840493651938
0.009609210313867942027
0.01104937035136670936
0.01106026865865662734
0.01106026865865663601
0.01106026865865661346
0.01104937035136673018
0.01106026865865664122
0.01106026865865662213