# vtk DataFile Version 2.0 
icosahedral triangles
ASCII
DATASET POLYDATA
POINTS 20480 double 
0.1875924740850799244  0.5773502691896257311  0.7946544722917661119
-0.491123473188423032  0.3568220897730899344  0.7946544722917661119
-0.491123473188423032  -0.3568220897730899344  0.7946544722917661119
0.1875924740850799244  -0.5773502691896257311  0.7946544722917661119
0.6070619982066861597  0  0.7946544722917661119
0.7946544722917662229  0.57735026918962562  -0.1875924740850798966
0.3035309991033430799  0.9341723589627156654  0.1875924740850798966
-0.3035309991033430799  0.9341723589627156654  -0.1875924740850798966
-0.7946544722917662229  0.57735026918962562  0.1875924740850798966
-0.982246946376845953  0  -0.1875924740850798689
-0.7946544722917661119  -0.5773502691896257311  0.1875924740850798411
-0.3035309991033430799  -0.9341723589627156654  -0.1875924740850798966
0.3035309991033430799  -0.9341723589627156654  0.1875924740850798966
0.7946544722917661119  -0.5773502691896257311  -0.1875924740850798411
0.982246946376845953  0  0.1875924740850798689
0.491123473188423032  0.3568220897730899344  -0.7946544722917661119
-0.1875924740850799244  0.5773502691896257311  -0.7946544722917661119
-0.6070619982066861597  0  -0.7946544722917661119
-0.1875924740850799244  -0.5773502691896257311  -0.7946544722917661119
0.491123473188423032  -0.3568220897730899344  -0.7946544722917661119
0.09297609225369893315  0.2861509884800967907  0.9536629688003488425
0.4980583570664153248  0.5804604812072649  0.6442076549630046944
-0.06175156466497316865  0.7623537509243947241  0.6442076549630046944
-0.2434145696613296272  0.176851036795079436  0.9536629688003488425
-0.3981422265800017568  0.6530537992393772306  0.6442076549630046944
-0.7441237854494182624  0.176851036795079436  0.6442076549630046944
-0.2434145696613296272  -0.176851036795079436  0.9536629688003488425
-0.7441237854494182624  -0.176851036795079436  0.6442076549630046944
-0.3981422265800017568  -0.6530537992393772306  0.6442076549630046944
0.09297609225369893315  -0.2861509884800967907  0.9536629688003488425
-0.06175156466497316865  -0.7623537509243947241  0.6442076549630046944
0.4980583570664153248  -0.5804604812072649  0.6442076549630046944
0.3008769548152613882  0  0.9536629688003488425
0.7059592196279779186  -0.2943094927271680539  0.6442076549630044724
0.7059592196279779186  0.2943094927271680539  0.6442076549630045834
0.7989353118816767685  0.5804604812072649  0.1573785156403453567
0.8945622628570489843  0.2861509884800969017  -0.3433307001477432507
0.5485807039876324787  0.7623537509243947241  -0.3433307001477431952
0.3051661343263027404  0.9392047877194742433  -0.1573785156403453289
-0.004289179511041412915  0.9392047877194742433  0.3433307001477431952
0.5555207422203471967  0.7573115180023443083  0.3433307001477432507
-0.3051661343263027404  0.9392047877194742433  0.1573785156403453289
0.004289179511041412915  0.9392047877194742433  -0.3433307001477431952
-0.5555207422203471967  0.7573115180023443083  -0.3433307001477432507
-0.7989353118816767685  0.5804604812072649  -0.1573785156403453567
-0.8945622628570489843  0.2861509884800969017  0.3433307001477432507
-0.5485807039876324787  0.7623537509243947241  0.3433307001477431952
-0.9875383551107479452  0  0.1573785156403453567
-0.8919114041353757294  0.2943094927271679984  -0.3433307001477431952
-0.8919114041353757294  -0.2943094927271679984  -0.3433307001477431952
-0.7989353118816767685  -0.5804604812072649  -0.1573785156403453289
-0.5485807039876324787  -0.7623537509243947241  0.3433307001477432507
-0.8945622628570489843  -0.2861509884800969017  0.3433307001477432507
-0.3051661343263028514  -0.9392047877194742433  0.1573785156403453567
-0.5555207422203473078  -0.7573115180023443083  -0.3433307001477432507
0.004289179511041412048  -0.9392047877194742433  -0.3433307001477431952
0.3051661343263028514  -0.9392047877194742433  -0.1573785156403453567
0.5555207422203473078  -0.7573115180023443083  0.3433307001477432507
-0.004289179511041412048  -0.9392047877194742433  0.3433307001477431952
0.7989353118816767685  -0.5804604812072649  0.1573785156403453289
0.5485807039876324787  -0.7623537509243947241  -0.3433307001477432507
0.8945622628570489843  -0.2861509884800969017  -0.3433307001477432507
0.9875383551107479452  0  -0.1573785156403453567
0.8919114041353757294  0.2943094927271679984  0.3433307001477431952
0.8919114041353757294  -0.2943094927271679984  0.3433307001477431952
0.2434145696613296272  0.176851036795079436  -0.9536629688003488425
0.3981422265800017568  0.6530537992393772306  -0.6442076549630046944
0.7441237854494182624  0.176851036795079436  -0.6442076549630046944
-0.09297609225369893315  0.2861509884800967907  -0.9536629688003488425
-0.4980583570664153248  0.5804604812072649  -0.6442076549630046944
0.06175156466497316865  0.7623537509243947241  -0.6442076549630046944
-0.3008769548152613882  0  -0.9536629688003488425
-0.7059592196279779186  -0.2943094927271680539  -0.6442076549630044724
-0.7059592196279779186  0.2943094927271680539  -0.6442076549630045834
-0.09297609225369893315  -0.2861509884800967907  -0.9536629688003488425
0.06175156466497316865  -0.7623537509243947241  -0.6442076549630046944
-0.4980583570664153248  -0.5804604812072649  -0.6442076549630046944
0.2434145696613296272  -0.176851036795079436  -0.9536629688003488425
0.7441237854494182624  -0.176851036795079436  -0.6442076549630046944
0.3981422265800017568  -0.6530537992393772306  -0.6442076549630046944
0.0462286957328963688  0.1422772958022190393  0.9887467212537512928
0.2653267292994699322  0.3027052868722929779  0.915407688420197041
-0.03672812965069627983  0.4008488598880542431  0.915407688420197041
0.4680818280698922362  0.450015488898932281  0.7605165757442784447
0.6199901465668323786  0.5591393907631303506  0.5504319756855274859
0.3845959183494773725  0.706958698831552601  0.5935447563034487173
-0.1141736859886555849  0.6392017736567703334  0.7605165757442784447
0.1043952632410957843  0.7980014105736292773  0.5935447563034487173
-0.1729286770512154792  0.8167743340704598509  0.5504319756855275969
0.2296911666583393852  0.7069167222589486377  0.6689624172924778511
0.00969662552742933323  0.5470813321983180044  0.837023292037619715
0.3137216040309103726  0.4482976285357510027  0.837023292037619715
-0.1210282966842998881  0.08793220463319408042  0.9887467212537512928
-0.2058993671814305093  0.3458817927782232848  0.915407688420197041
-0.3925795364796886289  0.0889385828456030203  0.915407688420197041
-0.2833449235193898352  0.5842347065469392087  0.7605165757442784447
-0.3401856694684117222  0.7624292429014348782  0.5504319756855275969
-0.5535110025380628462  0.5842347065469392087  0.5935447563034488283
-0.643198621344614585  0.08893858284560304805  0.7605165757442784447
-0.7266845310650293932  0.3458817927782233403  0.5935447563034488283
-0.8302364527839480868  0.08793220463319406655  0.5504319756855275969
-0.6013392812271490806  0.4368985615716996507  0.6689624172924778511
-0.5173088438545783152  0.1782794678485019602  0.837023292037619826
-0.3294110737104708475  0.4368985615716996507  0.837023292037619715
-0.121028296684299902  -0.08793220463319410818  0.9887467212537512928
-0.3925795364796885734  -0.08893858284560300642  0.915407688420197041
-0.2058993671814305371  -0.3458817927782233403  0.915407688420197041
-0.643198621344614585  -0.08893858284560304805  0.7605165757442784447
-0.8302364527839480868  -0.08793220463319406655  0.5504319756855275969
-0.7266845310650293932  -0.3458817927782233403  0.5935447563034488283
-0.2833449235193898352  -0.5842347065469392087  0.7605165757442784447
-0.5535110025380628462  -0.5842347065469392087  0.5935447563034488283
-0.3401856694684117222  -0.7624292429014348782  0.5504319756855275969
-0.6013392812271490806  -0.4368985615716996507  0.6689624172924778511
-0.3294110737104708475  -0.4368985615716996507  0.837023292037619715
-0.5173088438545783152  -0.1782794678485019602  0.837023292037619826
0.04622869573289635492  -0.1422772958022190115  0.9887467212537512928
-0.03672812965069627289  -0.4008488598880542431  0.915407688420197041
0.2653267292994699322  -0.3027052868722929779  0.915407688420197041
-0.1141736859886555849  -0.6392017736567703334  0.7605165757442784447
-0.1729286770512154792  -0.8167743340704598509  0.5504319756855275969
0.1043952632410957843  -0.7980014105736292773  0.5935447563034487173
0.4680818280698922362  -0.450015488898932281  0.7605165757442784447
0.3845959183494773725  -0.706958698831552601  0.5935447563034487173
0.6199901465668322675  -0.5591393907631304616  0.5504319756855275969
0.2296911666583393852  -0.7069167222589486377  0.6689624172924778511
0.3137216040309103726  -0.4482976285357509472  0.837023292037619715
0.00969662552742933323  -0.5470813321983180044  0.837023292037619715
0.1495992019028071218  0  0.9887467212537512928
0.3698803040123454511  -0.1587996369168589161  0.915407688420197041
0.3698803040123455066  0.1587996369168589439  0.915407688420197041
0.5726354027827678106  -0.3061098389434981915  0.7605165757442784447
0.7233606527367429928  -0.4168620949609114223  0.5504319756855275969
0.791204352012519152  -0.1473102020266392198  0.5935447563034487173
0.5726354027827678106  0.3061098389434981915  0.7605165757442784447
0.791204352012519152  0.1473102020266392198  0.5935447563034487173
0.7233606527367429928  0.4168620949609114223  0.5504319756855275969
0.7432962291376195019  0  0.6689624172924778511
0.5233016880067093979  0.1598353900606307998  0.837023292037619826
0.5233016880067093979  -0.1598353900606307998  0.837023292037619826
0.7695893484696394449  0.5591393907631303506  0.3083753823169277375
0.8895592618711594124  0.4500154888989322255  0.0785517623627443734
0.7028790925729012651  0.70695869883155249  0.07855176236274438728
0.9374232479656631201  0.3027052868722929779  -0.1720673225021815411
0.9050360537353515644  0.1422772958022190115  -0.4008327737827204751
0.8023402084563264758  0.4008488598880544096  -0.4422334015208544966
[...]
POINT_DATA 20480
SCALARS area double 1
LOOKUP_TABLE default
0.0007401820765739238871
0.0007401820765739280071
0.0007401820765739278987
0.0007401820765739236703
0.0007401820765739298503
0.0007401820765739290913
0.0007401820765739297418
0.0007401820765739297418
0.0007401820765739290913
0.0007401820765739273566
0.0007401820765739268145
0.0007401820765739297418
0.0007401820765739297418
0.0007401820765739268145
0.0007401820765739273566
0.0007401820765739280071
0.0007401820765739238871
0.0007401820765739298503
0.0007401820765739236703
0.0007401820765739278987
0.0006101600515479694512
0.0006101600515479711859
0.0006101600515479708607
0.0006101600515479719449
0.0006101600515479705354
0.0006101600515479673912
0.0006101600515479719449
0.0006101600515479673912
0.000610160051547970427
0.0006101600515479693428
0.0006101600515479707523
0.0006101600515479711859
0.0006101600515479689091
0.0006101600515479702102
0.000610160051547968367
0.000610160051547971728
0.0006101600515479707523
0.000610160051547974547
0.0006101600515479706438
0.0006101600515479716196
0.0006101600515479677165
0.0006101600515479706438
0.0006101600515479716196
0.0006101600515479677165
0.000610160051547971728
0.0006101600515479707523
0.000610160051547974547
0.0006101600515479706438
0.0006101600515479696681
0.0006101600515479697765
0.000610160051547972487
0.0006101600515479754143
0.0006101600515479707523
0.0006101600515479701017
0.0006101600515479668491
0.000610160051547971728
0.0006101600515479701017
0.0006101600515479668491
0.000610160051547971728
0.000610160051547972487
0.0006101600515479754143
0.0006101600515479707523
0.0006101600515479706438
0.0006101600515479696681
0.0006101600515479697765
0.0006101600515479719449
0.0006101600515479705354
0.0006101600515479673912
0.0006101600515479694512
0.0006101600515479711859
0.0006101600515479708607
0.0006101600515479689091
0.0006101600515479702102
0.000610160051547968367
0.0006101600515479693428
0.0006101600515479707523
0.0006101600515479711859
0.0006101600515479719449
0.0006101600515479673912
0.000610160051547970427
0.0005792322596284472675
0.0005858653887028500472
0.000585865388702851023
0.0005858653887028527577
0.0005792322596284482433
0.0005858653887028540588
0.0005858653887028514567
0.0005858653887028524325
0.0005792322596284503033
0.0007020974604087215068
0.000702097460408720531
0.0007020974604087199889
0.0005792322596284474844
0.000585865388702852324
0.0005858653887028527577
0.0005858653887028513483
0.0005792322596284477012
0.0005858653887028547093
0.0005858653887028529746
0.0005858653887028536251
0.0005792322596284485686
0.0007020974604087179289
0.0007020974604087210731
0.0007020974604087200973
0.0005792322596284474844
0.0005858653887028527577
0.0005858653887028524325
0.0005858653887028529746
0.000579232259628448677
0.0005858653887028536251
0.0005858653887028514567
0.0005858653887028547093
0.0005792322596284475928
0.0007020974604087179289
0.0007020974604087202057
0.0007020974604087210731
0.0005792322596284470507
0.000585865388702851023
0.0005858653887028500472
0.0005858653887028514567
0.0005792322596284503033
0.0005858653887028524325
0.0005858653887028527577
0.0005858653887028540588
0.000579232259628446617
0.0007020974604087216152
0.0007020974604087224825
0.000702097460408720531
0.0005792322596284472675
0.0005858653887028513483
0.0005858653887028516735
0.0005858653887028542756
0.0005792322596284477012
0.0005858653887028549261
0.0005858653887028542756
0.0005858653887028549261
0.0005792322596284477012
0.0007020974604087170615
0.0007020974604087181457
0.0007020974604087180373
0.0005792322596284459665
0.0005858653887028525409
0.0005858653887028514567
0.0005858653887028527577
0.0005792322596284473759
0.0005858653887028516735
0.0005858653887028516735
0.0005858653887028521072
0.0005792322596284484601
0.0007020974604087172784
0.0007020974604087233499
0.0007020974604087189047
0.0005792322596284441233
0.0005858653887028509146
0.0005858653887028540588
0.0005858653887028522156
0.0005792322596284481349
0.0005858653887028519988
0.0005858653887028491799
0.0005858653887028493967
0.0005792322596284481349
0.0007020974604087152184
0.0007020974604087170615
0.000702097460408719772
0.0005792322596284441233
0.0005858653887028509146
0.0005858653887028540588
0.0005858653887028522156
0.0005792322596284481349
0.0005858653887028519988
0.0005858653887028491799
0.0005858653887028493967
0.0005792322596284481349
0.0007020974604087152184
0.0007020974604087170615
0.000702097460408719772
0.0005792322596284459665
0.0005858653887028525409
0.0005858653887028514567
0.0005858653887028527577
0.0005792322596284473759
0.0005858653887028516735
0.0005858653887028516735
0.0005858653887028521072
0.0005792322596284484601
0.0007020974604087172784
0.0007020974604087233499
0.0007020974604087189047
0.000579232259628445858
0.0005858653887028537335
0.0005858653887028536251
0.0005858653887028514567
0.0005792322596284467254
0.0005858653887028513483
0.000585865388702851023
0.000585865388702851023
0.0005792322596284461833
0.0007020974604087181457
0.000702097460408719772
0.0007020974604087198805
0.000579232259628445858
0.0005858653887028521072
0.0005858653887028518904
0.0005858653887028529746
0.0005792322596284484601
0.0005858653887028554682
0.0005858653887028528661
0.0005858653887028512398
0.000579232259628447918
0.0007020974604087172784
0.0007020974604087189047
0.0007020974604087233499
0.0005792322596284440149
0.0005858653887028540588
0.0005858653887028508062
0.0005858653887028490714
0.0005792322596284481349
0.0005858653887028485293
0.0005858653887028526493
0.0005858653887028519988
0.0005792322596284483517
0.0007020974604087156521
0.000702097460408719772
0.0007020974604087170615
0.0005792322596284440149
0.0005858653887028540588
0.0005858653887028508062
0.0005858653887028490714
0.0005792322596284481349
0.0005858653887028485293
0.0005858653887028526493
0.0005858653887028519988
0.0005792322596284483517
0.0007020974604087156521
0.000702097460408719772
0.0007020974604087170615
0.000579232259628445858
0.0005858653887028521072
0.0005858653887028518904
0.0005858653887028529746
0.0005792322596284484601
0.0005858653887028554682
0.0005858653887028528661
0.0005858653887028512398
0.000579232259628447918
0.0007020974604087172784
0.0007020974604087189047
0.0007020974604087233499
0.000579232259628445858
0.0005858653887028537335
0.0005858653887028536251
0.0005858653887028514567
0.0005792322596284467254
0.0005858653887028513483
0.000585865388702851023
0.000585865388702851023
0.0005792322596284461833
0.0007020974604087181457
0.000702097460408719772
0.0007020974604087198805
0.0005792322596284474844
0.000585865388702852324
0.0005858653887028527577
0.0005858653887028513483
0.0005792322596284477012
0.0005858653887028547093
0.0005858653887028529746
0.0005858653887028536251
0.0005792322596284485686
0.0007020974604087179289
0.0007020974604087210731
0.0007020974604087200973
0.0005792322596284472675
0.0005858653887028500472
0.000585865388702851023
0.0005858653887028527577
0.0005792322596284482433
0.0005858653887028540588
0.0005858653887028514567
0.0005858653887028524325
0.0005792322596284503033
0.0007020974604087215068
0.000702097460408720531
0.0007020974604087199889
0.0005792322596284472675
0.0005858653887028513483
0.0005858653887028516735
0.0005858653887028542756
0.0005792322596284477012
0.0005858653887028549261
0.0005858653887028542756
0.0005858653887028549261
0.0005792322596284477012
0.0007020974604087170615
0.0007020974604087181457
0.0007020974604087180373
0.0005792322596284470507
0.000585865388702851023
0.0005858653887028500472
0.0005858653887028514567
0.0005792322596284503033
0.0005858653887028524325
0.0005858653887028527577
0.0005858653887028540588
0.000579232259628446617
0.0007020974604087216152
0.0007020974604087224825
0.000702097460408720531
0.0005792322596284474844
0.0005858653887028527577
0.0005858653887028524325
0.0005858653887028529746
0.000579232259628448677
0.0005858653887028536251
0.0005858653887028514567
0.0005858653887028547093
0.0005792322596284475928
0.0007020974604087179289
0.0007020974604087202057
0.0007020974604087210731
0.0005716485822865435395
0.0005736311133432529796
0.0005736311133432521123
0.0005785872845075840315
0.0005798013476269537128
0.0005801986324127690478
0.0005785872845075834894
0.0005801986324127718668
0.0005798013476269546886
0.0006021642756282722438
0.0006038388920469129955
0.0006038388920469134292
0.0005798013476269546886
0.0005785872845075817547
0.0005801986324127680721
0.000573631113343246366
0.00057164858228654419
0.0005736311133432531965
0.0005801986324127725173
0.0005785872845075817547
0.0005798013476269517612
0.0006038388920469116945
0.0006021642756282708344
0.0006038388920469128871
0.0005798013476269578328
0.0005801986324127661205
0.0005785872845075830558
0.0005801986324127682889
0.0005798013476269526286
0.0005785872845075829473
0.0005736311133432477755
0.0005736311133432546059
0.0005716485822865418048
0.0006038388920469136461
0.0006038388920469162481
0.000602164275628272027
0.0006926587874252057358
0.0006933419982840653174
0.0006933419982840673774
0.00069334199828407269
0.0006926587874252015074
0.0006933419982840674858
0.0006933419982840662932
0.0006933419982840671606
0.0006926587874251976043
0.0007302185643118895694
0.0007302185643118804621
0.0007302185643118820884
0.0005716485822865427805
0.0005736311133432520038
0.0005736311133432536302
0.000578587284507581321
0.0005798013476269529539
0.0005801986324127724089
0.000578587284507585441
0.0005801986324127703489
0.0005798013476269520865
0.0006021642756282744122
0.0006038388920469147303
0.0006038388920469116945
0.0005798013476269543633
0.0005785872845075850073
0.0005801986324127664458
0.000573631113343251787
0.0005716485822865455995
0.0005736311133432534133
0.0005801986324127704573
0.0005785872845075802368
0.0005798013476269560981
0.0006038388920469163566
0.0006021642756282757133
0.0006038388920469146218
0.0005798013476269576159
0.0005801986324127705657
0.0005785872845075782853
0.0005801986324127707826
0.0005798013476269557728
0.0005785872845075842484
0.0005736311133432495102
0.0005736311133432554733
0.0005716485822865445153
0.0006038388920469161397
0.0006038388920469113692
0.000602164275628273328
0.0006926587874252044348
0.0006933419982840711721
0.0006933419982840710637
0.000693341998284071389
0.0006926587874251990138
0.0006933419982840688953
0.0006933419982840674858
0.0006933419982840679195
0.000692658787425200098
0.0007302185643118842568
0.0007302185643118827389
0.0007302185643118859915
0.0005716485822865427805
0.0005736311133432536302
0.0005736311133432520038
0.000578587284507585441
0.0005798013476269537128
0.000580198632412770891
0.0005785872845075815379
0.0005801986324127724089
0.0005798013476269536044
0.0006021642756282744122
0.0006038388920469120198
0.000603838892046914405
0.0005798013476269585917
0.0005785872845075781768
0.0005801986324127672047
0.0005736311133432491849
0.0005716485822865445153
0.0005736311133432529796
0.000580198632412770132
0.0005785872845075843568
0.0005798013476269557728
0.0006038388920469161397
0.0006021642756282702923
0.0006038388920469111524
0.0005798013476269544718
0.0005801986324127663373
0.0005785872845075845736
0.0005801986324127704573
0.0005798013476269546886
0.00057858728450758002
0.0005736311133432516786
0.0005736311133432534133
0.0005716485822865455995
0.000603838892046916465
0.0006038388920469147303
0.0006021642756282747375
0.0006926587874252044348
0.0006933419982840692206
0.0006933419982840711721
0.0006933419982840677027
0.000692658787425200098
0.0006933419982840679195
0.0006933419982840731237
0.0006933419982840688953
0.0006926587874251990138
0.0007302185643118842568
0.0007302185643118859915
0.0007302185643118803537
0.0005716485822865437563
0.0005736311133432521123
0.0005736311133432523291
0.0005785872845075835979
0.000579801347626954797
0.0005801986324127718668
0.0005785872845075839231
0.0005801986324127692647
0.0005798013476269543633
0.0006021642756282722438
0.0006038388920469140797
0.0006038388920469124534
0.0005798013476269577244
0.0005785872845075821884
0.0005801986324127661205
0.0005736311133432479923
0.0005716485822865423469
0.0005736311133432529796
0.0005801986324127680721
0.0005785872845075828389
0.0005798013476269525202
0.0006038388920469136461
0.000602164275628272027
0.0006038388920469161397
0.0005798013476269546886
0.0005801986324127659037
0.0005785872845075817547
0.0005801986324127709994
0.0005798013476269518697
0.0005785872845075819716
0.000573631113343246366
0.0005736311133432512449
0.00057164858228654419
0.0006038388920469116945
0.0006038388920469129955
0.0006021642756282709428
0.0006926587874252058442
0.0006933419982840687869
0.0006933419982840653174
0.0006933419982840662932
0.0006926587874251973875
0.0006933419982840670522
0.00069334199828407269
0.0006933419982840683532
0.0006926587874252007485
0.000730218564311889461
0.00073021856431188198
0.0007302185643118826305
0.0005716485822865432142
0.0005736311133432537386
0.0005736311133432536302
0.0005785872845075828389
0.000579801347626953496
0.0005801986324127713247
0.0005785872845075828389
0.000580198632412770891
0.0005798013476269539297
0.0006021642756282746291
0.000603838892046914405
0.0006038388920469140797
0.0005798013476269592422
0.0005785872845075808873
0.0005801986324127655784
0.0005736311133432535217
0.0005716485822865439732
0.0005736311133432531965
0.0005801986324127695899
0.0005785872845075804537
0.0005798013476269515444
0.000603838892046911044
0.0006021642756282739786
0.0006038388920469126703
0.0005798013476269593507
0.0005801986324127664458
0.0005785872845075808873
0.0005801986324127679636
0.000579801347626950677
0.0005785872845075802368
0.0005736311133432535217
0.0005736311133432528712
0.0005716485822865426721
0.0006038388920469107187
0.0006038388920469120198
0.0006021642756282759301
0.0006926587874252017243
0.0006933419982840684616
0.0006933419982840677027
0.0006933419982840707384
0.0006926587874252004232
0.0006933419982840673774
0.0006933419982840700879
0.0006933419982840695458
0.0006926587874252006401
0.0007302185643118872926
0.0007302185643118846905
0.0007302185643118846905
0.000571648582286545491
0.0005736311133432514617
0.000573631113343249727
0.0005785872845075821884
0.0005798013476269543633
0.0005801986324127681805
0.0005785872845075830558
0.0005801986324127739268
0.0005798013476269507855
0.0006021642756282731112
0.0006038388920469137545
0.0006038388920469120198
0.0005798013476269550139
0.0005785872845075826221
0.0005801986324127689394
0.0005736311133432553649
0.0005716485822865442984
0.0005736311133432564491
0.0005801986324127687226
0.0005785872845075860915
0.0005798013476269529539
0.000603838892046914405
0.0006021642756282741954
0.0006038388920469140797
0.0005798013476269543633
0.0005801986324127662289
0.0005785872845075850073
0.0005801986324127698068
0.0005798013476269576159
0.0005785872845075808873
0.0005736311133432527628
0.0005736311133432527628
0.0005716485822865450574
0.0006038388920469175492
0.0006038388920469154892
0.0006021642756282741954
0.0006926587874252043264
0.0006933419982840690037
0.0006933419982840690037
0.0006933419982840698711
0.0006926587874252046516
0.0006933419982840692206
0.0006933419982840704132
0.0006933419982840700879
0.0006926587874252018327
0.0007302185643118864252
0.0007302185643118879431
0.0007302185643118814379
0.0005716485822865432142
0.0005736311133432526544
0.0005736311133432512449
0.0005785872845075838147
0.000579801347626953496
0.0005801986324127685057
0.00057858728450758414
0.000580198632412770132
0.0005798013476269521949
0.0006021642756282735449
0.0006038388920469127787
0.000603838892046912345
0.0005798013476269544718
0.0005785872845075830558
0.0005801986324127685057
0.0005736311133432528712
0.0005716485822865424553
0.0005736311133432507028
0.0005801986324127702405
0.0005785872845075830558
0.0005798013476269569654
0.0006038388920469133208
0.0006021642756282738701
0.0006038388920469148387
0.0005798013476269529539
0.0005801986324127712162
0.0005785872845075834894
0.0005801986324127664458
0.0005798013476269526286
0.000578587284507583381
0.0005736311133432522207
0.0005736311133432536302
0.0005716485822865409374
0.0006038388920469161397
0.0006038388920469111524
0.000602164275628273328
0.0006926587874252002064
0.0006933419982840630406
0.0006933419982840694374
0.000693341998284067269
0.0006926587874252004232
0.0006933419982840691121
0.0006933419982840698711
0.0006933419982840694374
0.0006926587874252004232
0.0007302185643118847989
0.0007302185643118868589
0.0007302185643118850157
0.0005716485822865432142
0.0005736311133432526544
0.0005736311133432512449
0.0005785872845075838147
0.000579801347626953496
0.0005801986324127685057
0.00057858728450758414
0.000580198632412770132
0.0005798013476269521949
0.0006021642756282735449
0.0006038388920469127787
0.000603838892046912345
0.0005798013476269544718
0.0005785872845075830558
0.0005801986324127685057
0.0005736311133432528712
0.0005716485822865424553
0.0005736311133432507028
0.0005801986324127702405
0.0005785872845075830558
0.0005798013476269569654
0.0006038388920469133208
0.0006021642756282738701
0.0006038388920469148387
0.0005798013476269529539
0.0005801986324127712162
0.0005785872845075834894
0.0005801986324127664458
0.0005798013476269526286
0.000578587284507583381
0.0005736311133432522207
0.0005736311133432536302
0.0005716485822865409374
0.0006038388920469161397
0.0006038388920469111524
0.000602164275628273328
0.0006926587874252002064
0.0006933419982840630406
0.0006933419982840694374
0.000693341998284067269
0.0006926587874252004232
0.0006933419982840691121
0.0006933419982840698711
0.0006933419982840694374
0.0006926587874252004232
0.0007302185643118847989
0.0007302185643118868589
0.0007302185643118850157
0.000571648582286545491
0.0005736311133432514617
0.000573631113343249727
0.0005785872845075821884
0.0005798013476269543633
0.0005801986324127681805
0.0005785872845075830558
0.0005801986324127739268
0.0005798013476269507855
0.0006021642756282731112
0.0006038388920469137545
0.0006038388920469120198
0.0005798013476269550139
0.0005785872845075826221
0.0005801986324127689394
0.0005736311133432553649
0.0005716485822865442984
0.0005736311133432564491
0.0005801986324127687226
0.0005785872845075860915
0.0005798013476269529539
0.000603838892046914405
0.0006021642756282741954
0.0006038388920469140797
0.0005798013476269543633
0.0005801986324127662289
0.0005785872845075850073
0.0005801986324127698068
0.0005798013476269576159
0.0005785872845075808873
0.0005736311133432527628
0.0005736311133432527628
0.0005716485822865450574
0.0006038388920469175492
0.0006038388920469154892
0.0006021642756282741954
0.0006926587874252043264
0.0006933419982840690037
0.0006933419982840690037
0.0006933419982840698711
0.0006926587874252046516
0.0006933419982840692206
0.0006933419982840704132
0.0006933419982840700879
0.0006926587874252018327
0.0007302185643118864252
0.0007302185643118879431
0.0007302185643118814379
0.000571648582286545491
0.0005736311133432512449
0.0005736311133432512449
0.0005785872845075844652
0.000579801347626953496
0.0005801986324127691563
0.0005785872845075843568
0.0005801986324127691563
0.000579801347626953496
0.0006021642756282738701
0.0006038388920469133208
0.0006038388920469125619
0.0005798013476269543633
0.0005785872845075815379
0.0005801986324127690478
0.0005736311133432539554
0.0005716485822865433226
0.0005736311133432530881
0.0005801986324127682889
0.0005785872845075852242
0.0005798013476269554475
0.0006038388920469159229
0.0006021642756282770143
0.0006038388920469206934
0.0005798013476269543633
0.0005801986324127693731
0.0005785872845075815379
0.0005801986324127683973
0.0005798013476269543633
0.0005785872845075852242
0.0005736311133432546059
0.0005736311133432530881
0.000571648582286542889
0.0006038388920469159229
0.000603838892046920585
0.0006021642756282754964
0.0006926587874252017243
0.0006933419982840710637
0.0006933419982840708469
0.0006933419982840707384
0.0006926587874252019411
0.0006933419982840694374
0.0006933419982840707384
0.0006933419982840692206
0.0006926587874252019411
0.0007302185643118863168
0.0007302185643118868589
0.0007302185643118875094
0.0005716485822865439732