# vtk DataFile Version 2.0 
icosahedral triangles
ASCII
DATASET POLYDATA
POINTS 5120 double 
0.1875924740850798966  0.5773502691896257311  0.7946544722917661119
-0.491123473188423032  0.3568220897730899344  0.7946544722917661119
-0.491123473188423032  -0.3568220897730899344  0.7946544722917661119
0.1875924740850798966  -0.5773502691896257311  0.7946544722917661119
0.6070619982066861597  0  0.7946544722917661119
0.7946544722917662229  0.5773502691896258421  -0.1875924740850798966
0.3035309991033431354  0.9341723589627156654  0.1875924740850798689
-0.3035309991033431354  0.9341723589627156654  -0.1875924740850798689
-0.7946544722917662229  0.5773502691896258421  0.1875924740850798966
-0.982246946376846064  0  -0.1875924740850798689
-0.7946544722917662229  -0.5773502691896258421  0.1875924740850798966
-0.3035309991033431354  -0.9341723589627156654  -0.1875924740850798411
0.3035309991033431354  -0.9341723589627156654  0.1875924740850798411
0.7946544722917662229  -0.5773502691896258421  -0.1875924740850798966
0.982246946376846064  0  0.1875924740850798689
0.491123473188423032  0.3568220897730899344  -0.7946544722917661119
-0.1875924740850798966  0.5773502691896257311  -0.7946544722917661119
-0.6070619982066861597  0  -0.7946544722917661119
-0.1875924740850798966  -0.5773502691896257311  -0.7946544722917661119
0.491123473188423032  -0.3568220897730899344  -0.7946544722917661119
0.0929764304657608176  0.2861520293897917289  0.9536626234963543336
0.4980574087104537861  0.5804605873705755981  0.6442082925095222734
-0.06175073502765516392  0.7623532793826691689  0.6442082925095222734
-0.243415455112002993  0.1768516801126500948  0.9536626234963543336
-0.3981426206054190509  0.6530529301055274516  0.6442082925095223844
-0.7441230806145570087  0.1768516801126501226  0.6442082925095223844
-0.2434154551120030208  -0.1768516801126500948  0.9536626234963543336
-0.7441230806145570087  -0.1768516801126501781  0.6442082925095223844
-0.3981426206054190509  -0.6530529301055274516  0.6442082925095223844
0.09297643046576084536  -0.2861520293897917844  0.9536626234963543336
-0.06175073502765516392  -0.7623532793826691689  0.6442082925095222734
0.4980574087104538417  -0.5804605873705755981  0.6442082925095223844
0.3008780492924844618  0  0.9536626234963543336
0.7059590275371774304  -0.2943085579807838692  0.6442082925095222734
0.7059590275371774304  0.2943085579807838692  0.6442082925095222734
0.7989354580029383035  0.5804605873705755981  0.1573773822855161764
0.8945621052607992674  0.2861520293897918399  -0.3433302432170378671
0.5485816452516614206  0.7623532793826691689  -0.3433302432170377561
0.3051661901396582888  0.939204959495319458  -0.1573773822855161486
-0.004288140847173766215  0.939204959495319347  0.3433302432170378116
0.5555200028909352827  0.7573122674832258872  0.3433302432170378116
-0.3051661901396582888  0.939204959495319458  0.1573773822855161486
0.004288140847173766215  0.939204959495319347  -0.3433302432170378116
-0.5555200028909352827  0.7573122674832258872  -0.3433302432170378116
-0.7989354580029383035  0.5804605873705755981  -0.1573773822855161764
-0.8945621052607992674  0.2861520293897918399  0.3433302432170378671
-0.5485816452516614206  0.7623532793826691689  0.3433302432170377561
-0.9875385357265601405  0  0.1573773822855161486
-0.8919118884686992876  0.2943085579807837582  -0.3433302432170378116
-0.8919118884686991766  -0.2943085579807838137  -0.3433302432170377561
-0.7989354580029383035  -0.5804605873705755981  -0.1573773822855161486
-0.5485816452516614206  -0.7623532793826691689  0.3433302432170378116
-0.8945621052607992674  -0.2861520293897918399  0.3433302432170378116
-0.3051661901396582888  -0.939204959495319458  0.1573773822855161764
-0.5555200028909352827  -0.7573122674832256651  -0.3433302432170377561
0.004288140847173767083  -0.939204959495319458  -0.3433302432170378116
0.3051661901396582888  -0.939204959495319458  -0.1573773822855161764
0.5555200028909352827  -0.7573122674832256651  0.3433302432170377561
-0.004288140847173767083  -0.939204959495319458  0.3433302432170378116
0.7989354580029383035  -0.5804605873705755981  0.1573773822855161486
0.5485816452516614206  -0.7623532793826691689  -0.3433302432170378116
0.8945621052607992674  -0.2861520293897918399  -0.3433302432170378116
0.9875385357265601405  0  -0.1573773822855161486
0.8919118884686992876  0.2943085579807837582  0.3433302432170378116
0.8919118884686991766  -0.2943085579807838137  0.3433302432170377561
0.243415455112002993  0.1768516801126500948  -0.9536626234963543336
0.3981426206054190509  0.6530529301055274516  -0.6442082925095223844
0.7441230806145570087  0.1768516801126501226  -0.6442082925095223844
-0.0929764304657608176  0.2861520293897917289  -0.9536626234963543336
-0.4980574087104537861  0.5804605873705755981  -0.6442082925095222734
0.06175073502765516392  0.7623532793826691689  -0.6442082925095222734
-0.3008780492924844618  0  -0.9536626234963543336
-0.7059590275371774304  -0.2943085579807838692  -0.6442082925095222734
-0.7059590275371774304  0.2943085579807838692  -0.6442082925095222734
-0.09297643046576084536  -0.2861520293897917844  -0.9536626234963543336
0.06175073502765516392  -0.7623532793826691689  -0.6442082925095222734
-0.4980574087104538417  -0.5804605873705755981  -0.6442082925095223844
0.2434154551120030208  -0.1768516801126500948  -0.9536626234963543336
0.7441230806145570087  -0.1768516801126501781  -0.6442082925095223844
0.3981426206054190509  -0.6530529301055274516  -0.6442082925095223844
0.04622828028032722331  0.1422760171706864696  0.9887469246679707613
0.2653267240148765582  0.3027042964258089275  0.9154080174702914352
-0.0367287075452069553  0.4008480554938106954  0.9154080174702914352
0.4680827475101395629  0.4500151703043717144  0.7605161983674550985
0.6199911517711591546  0.5591391442992504901  0.5504310938144513221
0.3845966795242360958  0.7069588673280809976  0.5935440623956479422
-0.1141746170966251583  0.639202056341774294  0.7605161983674550985
0.1043947464775548395  0.7980019942974818647  0.5935440623956480533
-0.1729296351464325587  0.8167747255212715052  0.5504310938144513221
0.2296912621320448267  0.7069170160968001326  0.66896207400194585
0.009696179943227229911  0.5470812329345893232  0.8370233620785492157
0.313721906170346565  0.4482972863218850357  0.8370233620785492157
-0.1210272090153531738  0.08793141439544788218  0.9887469246679707613
-0.2058984268438769916  0.3458814816874808407  0.9154080174702914352
-0.3925789500345263083  0.08893778466377144643  0.9154080174702914352
-0.2833443363952952709  0.5842354825354443282  0.7605161983674550985
-0.3401851244421129628  0.7624301227460328345  0.5504310938144513221
-0.5535109275718480548  0.5842354825354443282  0.5935440623956480533
-0.6431991779222158145  0.0889377846637714603  0.7605161983674550985
-0.7266852459081193372  0.3458814816874808407  0.5935440623956479422
-0.8302371211434974585  0.08793141439544788218  0.5504310938144514331
-0.6013395311805549426  0.4368987431734789317  0.66896207400194585
-0.5173088871422532042  0.178279013398563918  0.8370233620785492157
-0.3294106548795232015  0.4368987431734789317  0.8370233620785492157
-0.1210272090153531599  -0.08793141439544789606  0.9887469246679707613
-0.3925789500345263083  -0.08893778466377144643  0.9154080174702914352
-0.2058984268438769916  -0.3458814816874807296  0.9154080174702914352
-0.6431991779222158145  -0.08893778466377148806  0.7605161983674550985
-0.8302371211434974585  -0.08793141439544788218  0.5504310938144514331
-0.7266852459081193372  -0.3458814816874808407  0.5935440623956479422
-0.2833443363952952709  -0.5842354825354443282  0.7605161983674550985
-0.5535109275718480548  -0.5842354825354443282  0.5935440623956480533
-0.3401851244421129628  -0.7624301227460328345  0.5504310938144513221
-0.6013395311805550536  -0.4368987431734788762  0.66896207400194585
-0.3294106548795232015  -0.4368987431734788762  0.8370233620785492157
-0.5173088871422532042  -0.178279013398563918  0.8370233620785492157
0.04622828028032720943  -0.1422760171706864696  0.9887469246679707613
-0.0367287075452069553  -0.4008480554938106954  0.9154080174702914352
0.2653267240148765582  -0.3027042964258089275  0.9154080174702914352
-0.1141746170966251583  -0.639202056341774294  0.7605161983674550985
-0.1729296351464325587  -0.8167747255212715052  0.5504310938144514331
0.1043947464775548395  -0.7980019942974818647  0.5935440623956480533
0.4680827475101395629  -0.4500151703043717144  0.7605161983674550985
0.3845966795242360403  -0.7069588673280809976  0.5935440623956479422
0.6199911517711592657  -0.5591391442992503791  0.5504310938144513221
0.2296912621320448544  -0.7069170160967999106  0.668962074001945961
0.313721906170346565  -0.4482972863218850357  0.8370233620785492157
0.009696179943227231646  -0.5470812329345893232  0.8370233620785492157
0.1495978574700518871  0  0.9887469246679707613
0.3698793604087337039  -0.1587999379557075985  0.9154080174702914352
0.3698793604087336484  0.1587999379557075985  0.9154080174702914352
0.5726353839039967086  -0.3061108118342702467  0.7605161983674550985
0.7233607289608837698  -0.4168631271285640483  0.5504310938144514331
0.7912047474781767065  -0.1473108738785627314  0.5935440623956479422
0.5726353839039967086  0.3061108118342702467  0.7605161983674550985
0.7912047474781767065  0.1473108738785626759  0.5935440623956479422
0.7233607289608837698  0.4168631271285641038  0.5504310938144515442
0.7432965380970203428  0  0.66896207400194585
0.5233014559082026507  0.1598357831622106984  0.8370233620785492157
0.5233014559082026507  -0.1598357831622106984  0.8370233620785492157
0.7695890092412110972  0.5591391442992504901  0.3083766757837449468
0.8895593355212462194  0.4500151703043716589  0.07855275350314819272
0.7028788123305969027  0.7069588673280809976  0.07855275350314820659
0.9374235399136727764  0.3027042964258089275  -0.1720674743845414523
0.9050360498785234853  0.1422760171706864973  -0.4008332363443993795
0.8023402443253963012  0.400848055493810751  -0.4422340655610942362
[...]
POINT_DATA 5120
SCALARS area double 1
LOOKUP_TABLE default
0.002958832320720325513
0.002958832320720330717
0.002958832320720331151
0.002958832320720325947
0.002958832320720332018
0.002958832320720325947
0.002958832320720324646
0.002958832320720324646
0.002958832320720325947
0.002958832320720330283
0.00295883232072032638
0.00295883232072032638
0.00295883232072032638
0.00295883232072032638
0.002958832320720330283
0.002958832320720330717
0.002958832320720325513
0.002958832320720332018
0.002958832320720325947
0.002958832320720331151
0.002439334596486027705
0.002439334596486027705
0.002439334596486025537
0.00243933459648602597
0.002439334596486024236
0.002439334596486023802
0.002439334596486023368
0.002439334596486024236
0.002439334596486023802
0.00243933459648602597
0.002439334596486025537
0.002439334596486020766
0.00243933459648602944
0.002439334596486027271
0.002439334596486027271
0.002439334596486026404
0.002439334596486032909
0.002439334596486029873
0.002439334596486026404
0.002439334596486025103
0.002439334596486031608
0.002439334596486026404
0.002439334596486025103
0.002439334596486031608
0.002439334596486026404
0.002439334596486032909
0.002439334596486029873
0.002439334596486027705
0.002439334596486017297
0.002439334596486013394
0.002439334596486024236
0.002439334596486030307
0.002439334596486031608
0.002439334596486026404
0.00243933459648602944
0.002439334596486026838
0.002439334596486026404
0.00243933459648602944
0.002439334596486026838
0.002439334596486024236
0.002439334596486030307
0.002439334596486031608
0.002439334596486027705
0.002439334596486017297
0.002439334596486013394
0.00243933459648602597
0.002439334596486024236
0.002439334596486023802
0.002439334596486027705
0.002439334596486027705
0.002439334596486025537
0.00243933459648602944
0.002439334596486027271
0.002439334596486027271
0.00243933459648602597
0.002439334596486025537
0.002439334596486020766
0.002439334596486023368
0.002439334596486024236
0.002439334596486023802
0.00231574139392714401
0.002342259574316812171
0.002342259574316806533
0.002342259574316809569
0.0023157413939271323
0.0023422595743168074
0.002342259574316808268
0.002342259574316811303
0.002315741393927145744
0.002806681706316833252
0.002806681706316841059
0.002806681706316841926
0.002315741393927143142
0.002342259574316806099
0.002342259574316810436
0.002342259574316810436
0.002315741393927134902
0.002342259574316803063
0.002342259574316809569
0.002342259574316813038
0.002315741393927135336
0.002806681706316835855
0.002806681706316829783
0.002806681706316841059
0.002315741393927144877
0.002342259574316810002
0.002342259574316805232
0.002342259574316810002
0.002315741393927135336
0.002342259574316813038
0.002342259574316810436
0.002342259574316803063
0.002315741393927135336
0.002806681706316831951
0.00280668170631683889
0.002806681706316829783
0.002315741393927142275
0.002342259574316806967
0.002342259574316812604
0.002342259574316807834
0.002315741393927147045
0.002342259574316811303
0.002342259574316809569
0.002342259574316810436
0.002315741393927133601
0.002806681706316840191
0.002806681706316841926
0.002806681706316840191
0.002315741393927143576
0.002342259574316808701
0.002342259574316809569
0.002342259574316802196
0.00231574139392713577
0.002342259574316813038
0.002342259574316801762
0.002342259574316812604
0.002315741393927135336
0.002806681706316838023
0.002806681706316841059
0.002806681706316841059
0.002315741393927137938
0.002342259574316812171
0.002342259574316807834
0.002342259574316806967
0.002315741393927139239
0.002342259574316812171
0.002342259574316805232
0.002342259574316807834
0.00231574139392714054
0.002806681706316835855
0.002806681706316829783
0.002806681706316836722
0.002315741393927137504
0.002342259574316806099
0.002342259574316808701
0.002342259574316806967
0.002315741393927138805
0.002342259574316805232
0.002342259574316807834
0.002342259574316812171
0.002315741393927150948
0.002806681706316834987
0.002806681706316837589
0.00280668170631684236
0.002315741393927137504
0.002342259574316806099
0.002342259574316808701
0.002342259574316806967
0.002315741393927138805
0.002342259574316805232
0.002342259574316807834
0.002342259574316812171
0.002315741393927150948
0.002806681706316834987
0.002806681706316837589
0.00280668170631684236
0.002315741393927137938
0.002342259574316812171
0.002342259574316807834
0.002342259574316806967
0.002315741393927139239
0.002342259574316812171
0.002342259574316805232
0.002342259574316807834
0.00231574139392714054
0.002806681706316835855
0.002806681706316829783
0.002806681706316836722
0.002315741393927142275
0.002342259574316806533
0.002342259574316806533
0.002342259574316805665
0.002315741393927137071
0.002342259574316810002
0.002342259574316805232
0.002342259574316810002
0.002315741393927138805
0.002806681706316834987
0.002806681706316841926
0.002806681706316841492
0.002315741393927137938
0.002342259574316805232
0.002342259574316812171
0.002342259574316805665
0.00231574139392714054
0.0023422595743168074
0.0023422595743168074
0.002342259574316812171
0.002315741393927142275
0.002806681706316835855
0.002806681706316836722
0.00280668170631683412
0.002315741393927137504
0.002342259574316808701
0.002342259574316806099
0.002342259574316811303
0.002315741393927150948
0.002342259574316812171
0.002342259574316804364
0.002342259574316805232
0.002315741393927139239
0.002806681706316834987
0.002806681706316842793
0.002806681706316837589
0.002315741393927137504
0.002342259574316808701
0.002342259574316806099
0.002342259574316811303
0.002315741393927150948
0.002342259574316812171
0.002342259574316804364
0.002342259574316805232
0.002315741393927139239
0.002806681706316834987
0.002806681706316842793
0.002806681706316837589
0.002315741393927137938
0.002342259574316805232
0.002342259574316812171
0.002342259574316805665
0.00231574139392714054
0.0023422595743168074
0.0023422595743168074
0.002342259574316812171
0.002315741393927142275
0.002806681706316835855
0.002806681706316836722
0.00280668170631683412
0.002315741393927142275
0.002342259574316806533
0.002342259574316806533
0.002342259574316805665
0.002315741393927137071
0.002342259574316810002
0.002342259574316805232
0.002342259574316810002
0.002315741393927138805
0.002806681706316834987
0.002806681706316841926
0.002806681706316841492
0.002315741393927143142
0.002342259574316806099
0.002342259574316810436
0.002342259574316810436
0.002315741393927134902
0.002342259574316803063
0.002342259574316809569
0.002342259574316813038
0.002315741393927135336
0.002806681706316835855
0.002806681706316829783
0.002806681706316841059
0.00231574139392714401
0.002342259574316812171
0.002342259574316806533
0.002342259574316809569
0.0023157413939271323
0.0023422595743168074
0.002342259574316808268
0.002342259574316811303
0.002315741393927145744
0.002806681706316833252
0.002806681706316841059
0.002806681706316841926
0.002315741393927143576
0.002342259574316808701
0.002342259574316809569
0.002342259574316802196
0.00231574139392713577
0.002342259574316813038
0.002342259574316801762
0.002342259574316812604
0.002315741393927135336
0.002806681706316838023
0.002806681706316841059
0.002806681706316841059
0.002315741393927142275
0.002342259574316806967
0.002342259574316812604
0.002342259574316807834
0.002315741393927147045
0.002342259574316811303
0.002342259574316809569
0.002342259574316810436
0.002315741393927133601
0.002806681706316840191
0.002806681706316841926
0.002806681706316840191
0.002315741393927144877
0.002342259574316810002
0.002342259574316805232
0.002342259574316810002
0.002315741393927135336
0.002342259574316813038
0.002342259574316810436
0.002342259574316803063
0.002315741393927135336
0.002806681706316831951
0.00280668170631683889
0.002806681706316829783
0.002285434303604705862
0.002293360355541309431
0.002293360355541306829
0.002313174576991791458
0.002318028334051053067
0.002319616656568641508
0.002313174576991785386
0.002319616656568647579
0.0023180283340510522
0.002407382690571365728
0.002414077566047317241
0.002414077566047315073
0.002318028334051046562
0.00231317457699178235
0.002319616656568645845
0.002293360355541300757
0.002285434303604704127
0.002293360355541314202
0.002319616656568646712
0.002313174576991786687
0.002318028334051044827
0.00241407756604731594
0.002407382690571364427
0.002414077566047320277
0.002318028334051047863
0.002319616656568642375
0.00231317457699178582
0.002319616656568643676
0.002318028334051049164
0.002313174576991784519
0.002293360355541305094
0.002293360355541304661
0.002285434303604703694
0.002414077566047315073
0.002414077566047310736
0.002407382690571374401
0.00276897134639143231
0.002771702523942557329
0.00277170252394255516
0.002771702523942551691
0.002768971346391426239
0.002771702523942551257
0.002771702523942549089
0.002771702523942555594
0.002768971346391421035
0.002919028781521710355
0.002919028781521706018
0.002919028781521704717
0.002285434303604705862
0.002293360355541308997
0.00229336035554130813
0.002313174576991791458
0.002318028334051048297
0.002319616656568647146
0.002313174576991788422
0.002319616656568643243
0.002318028334051043526
0.002407382690571370498
0.002414077566047312037
0.002414077566047313338
0.002318028334051045261
0.002313174576991795361
0.00231961665656864411
0.0022933603555413129
0.002285434303604704127
0.002293360355541311599
0.002319616656568645845
0.002313174576991785386
0.002318028334051043093
0.002414077566047316808
0.002407382690571367462
0.002414077566047314206
0.002318028334051040057
0.002319616656568643676
0.00231317457699178582
0.002319616656568647579
0.002318028334051046128
0.002313174576991789289
0.002293360355541306829
0.002293360355541305962
0.002285434303604704995
0.002414077566047313772
0.002414077566047317241
0.00240738269057136486
0.002768971346391426239
0.002771702523942546487
0.002771702523942548221
0.002771702523942549089
0.002768971346391423637
0.002771702523942553426
0.002771702523942554727
0.002771702523942556028
0.00276897134639142407
0.002919028781521705584
0.002919028781521701248
0.002919028781521701248
0.002285434303604705862
0.002293360355541307696
0.002293360355541309431
0.002313174576991788422
0.002318028334051043526
0.00231961665656864411
0.002313174576991791458
0.002319616656568647579
0.002318028334051046128
0.00240738269057136833
0.002414077566047313338
0.002414077566047312037
0.002318028334051040057
0.00231317457699178582
0.00231961665656864411
0.002293360355541306829
0.002285434303604704995
0.002293360355541304227
0.002319616656568644977
0.002313174576991789289
0.002318028334051045695
0.002414077566047313772
0.002407382690571365294
0.002414077566047312037
0.002318028334051044394
0.00231961665656864411
0.002313174576991791458
0.002319616656568642375
0.002318028334051042659
0.002313174576991784519
0.002293360355541309865
0.002293360355541307263
0.0022854343036047115
0.002414077566047316808
0.002414077566047314206
0.002407382690571365728
0.002768971346391426239
0.002771702523942552992
0.002771702523942553859
0.002771702523942554727
0.002768971346391424504
0.002771702523942555594
0.002771702523942549522
0.002771702523942553426
0.00276897134639142407
0.002919028781521705584
0.002919028781521701248
0.002919028781521701248
0.002285434303604705862
0.002293360355541306829
0.002293360355541308564
0.002313174576991787121
0.002318028334051051766
0.002319616656568647579
0.002313174576991791458
0.002319616656568644977
0.002318028334051053067
0.002407382690571365728
0.002414077566047315073
0.002414077566047317241
0.002318028334051044394
0.00231317457699178582
0.002319616656568642375
0.002293360355541307263
0.002285434303604703694
0.00229336035554130813
0.002319616656568643676
0.002313174576991785386
0.002318028334051049164
0.002414077566047315073
0.002407382690571374401
0.002414077566047308568
0.002318028334051046996
0.002319616656568640641
0.002313174576991785386
0.002319616656568645845
0.002318028334051039623
0.002313174576991782784
0.002293360355541301625
0.002293360355541308997
0.002285434303604703694
0.002414077566047316374
0.002414077566047320711
0.002407382690571364427
0.002768971346391432744
0.002771702523942554727
0.002771702523942553859
0.002771702523942547788
0.002768971346391421468
0.002771702523942556028
0.002771702523942551691
0.002771702523942551257
0.002768971346391425805
0.002919028781521710355
0.002919028781521708187
0.002919028781521706452
0.002285434303604708464
0.002293360355541312033
0.002293360355541312033
0.002313174576991787555
0.002318028334051042659
0.002319616656568642809
0.002313174576991785386
0.002319616656568643676
0.002318028334051042225
0.002407382690571368763
0.002414077566047315507
0.002414077566047315507
0.002318028334051051766
0.002313174576991786253
0.002319616656568641942
0.002293360355541313768
0.002285434303604708031
0.002293360355541307696
0.002319616656568638038
0.002313174576991780182
0.002318028334051040057
0.002414077566047305532
0.002407382690571373534
0.00241407756604731594
0.002318028334051051766
0.002319616656568643243
0.002313174576991786687
0.002319616656568638472
0.002318028334051040057
0.002313174576991775845
0.002293360355541313768
0.002293360355541307696
0.002285434303604708031
0.002414077566047305966
0.00241407756604731594
0.002407382690571373534
0.002768971346391429274
0.002771702523942556461
0.002771702523942556028
0.002771702523942563834
0.00276897134639142407
0.002771702523942554293
0.002771702523942563834
0.002771702523942554727
0.002768971346391424504
0.00291902878152170038
0.002919028781521699947
0.00291902878152170038
0.002285434303604708898
0.002293360355541304661
0.002293360355541308997
0.002313174576991785386
0.002318028334051043093
0.002319616656568639773
0.002313174576991787121
0.002319616656568646712
0.002318028334051046128
0.00240738269057136833
0.002414077566047302063
0.002414077566047312037
0.002318028334051044394
0.002313174576991786253
0.002319616656568641508
0.00229336035554130336
0.002285434303604711066
0.002293360355541309431
0.002319616656568640207
0.002313174576991797529
0.002318028334051040491
0.002414077566047314639
0.002407382690571371799
0.002414077566047315507
0.002318028334051049598
0.002319616656568641074
0.002313174576991788856
0.002319616656568645845
0.0023180283340510522
0.002313174576991791458
0.002293360355541305962
0.002293360355541309431
0.002285434303604711934
0.00241407756604731941
0.00241407756604731117
0.002407382690571366161
0.002768971346391424504
0.002771702523942551257
0.002771702523942556895
0.002771702523942553859
0.002768971346391430575
0.002771702523942552558
0.002771702523942553859
0.002771702523942554727
0.002768971346391424504
0.002919028781521702549
0.002919028781521708187
0.002919028781521701681
0.002285434303604706296
0.002293360355541305094
0.002293360355541313768
0.002313174576991787121
0.002318028334051045695
0.002319616656568647146
0.002313174576991789723
0.002319616656568646278
0.002318028334051046128
0.002407382690571372233
0.002414077566047312905
0.002414077566047314639
0.00231802833405104396
0.002313174576991786253
0.002319616656568647579
0.002293360355541305962
0.002285434303604708031
0.002293360355541315936
0.00231961665656864411
0.002313174576991789723
0.002318028334051048731
0.002414077566047318976
0.002407382690571371366
0.002414077566047315507
0.002318028334051046562
0.002319616656568645845
0.002313174576991783651
0.002319616656568640641
0.002318028334051044827
0.002313174576991789723
0.002293360355541305962
0.002293360355541309431
0.002285434303604710199
0.002414077566047315507
0.002414077566047312037
0.002407382690571370065
0.002768971346391428407
0.00277170252394255516
0.002771702523942547788
0.002771702523942549089
0.002768971346391427973
0.002771702523942554293
0.002771702523942554727
0.002771702523942552558
0.002768971346391426239
0.002919028781521699513
0.002919028781521707753
0.002919028781521703416
0.002285434303604706296
0.002293360355541305094
0.002293360355541313768
0.002313174576991787121
0.002318028334051045695
0.002319616656568647146
0.002313174576991789723
0.002319616656568646278
0.002318028334051046128
0.002407382690571372233
0.002414077566047312905
0.002414077566047314639
0.00231802833405104396
0.002313174576991786253
0.002319616656568647579
0.002293360355541305962
0.002285434303604708031
0.002293360355541315936
0.00231961665656864411
0.002313174576991789723
0.002318028334051048731
0.002414077566047318976
0.002407382690571371366
0.002414077566047315507
0.002318028334051046562
0.002319616656568645845
0.002313174576991783651
0.002319616656568640641
0.002318028334051044827
0.002313174576991789723
0.002293360355541305962
0.002293360355541309431
0.002285434303604710199
0.002414077566047315507
0.002414077566047312037
0.002407382690571370065
0.002768971346391428407
0.00277170252394255516
0.002771702523942547788
0.002771702523942549089
0.002768971346391427973
0.002771702523942554293
0.002771702523942554727
0.002771702523942552558
0.002768971346391426239
0.002919028781521699513
0.002919028781521707753
0.002919028781521703416
0.002285434303604708898
0.002293360355541304661
0.002293360355541308997
0.002313174576991785386
0.002318028334051043093
0.002319616656568639773
0.002313174576991787121
0.002319616656568646712
0.002318028334051046128
0.00240738269057136833
0.002414077566047302063
0.002414077566047312037
0.002318028334051044394
0.002313174576991786253
0.002319616656568641508
0.00229336035554130336
0.002285434303604711066
0.002293360355541309431
0.002319616656568640207
0.002313174576991797529
0.002318028334051040491
0.002414077566047314639
0.002407382690571371799
0.002414077566047315507
0.002318028334051049598
0.002319616656568641074
0.002313174576991788856
0.002319616656568645845
0.0023180283340510522
0.002313174576991791458
0.002293360355541305962
0.002293360355541309431
0.002285434303604711934
0.00241407756604731941
0.00241407756604731117
0.002407382690571366161
0.002768971346391424504
0.002771702523942551257
0.002771702523942556895
0.002771702523942553859
0.002768971346391430575
0.002771702523942552558
0.002771702523942553859
0.002771702523942554727
0.002768971346391424504
0.002919028781521702549
0.002919028781521708187
0.002919028781521701681
0.002285434303604704995
0.002293360355541312033
0.002293360355541308564
0.002313174576991789289
0.002318028334051045261
0.002319616656568644544
0.002313174576991786687
0.002319616656568644544
0.002318028334051045261
0.002407382690571370498
0.002414077566047310736
0.002414077566047310736
0.002318028334051047863
0.002313174576991782784
0.002319616656568641508
0.002293360355541307696
0.002285434303604706729
0.002293360355541307263
0.002319616656568638038
0.002313174576991791458
0.002318028334051048731
0.002414077566047319844
0.002407382690571368763
0.00241407756604731594
0.002318028334051048297
0.002319616656568641508
0.002313174576991783651
0.002319616656568638038
0.002318028334051048297
0.002313174576991791024
0.002293360355541306829
0.002293360355541307263
0.002285434303604706729
0.002414077566047319844
0.00241407756604731594
0.002407382690571367896
0.00276897134639143231
0.002771702523942549956
0.002771702523942549956
0.002771702523942552992
0.002768971346391426239
0.002771702523942554727
0.002771702523942554293
0.002771702523942554727
0.002768971346391426239
0.00291902878152170385
0.002919028781521705584
0.002919028781521705151
0.002285434303604709332
0.002293360355541308997
0.00229336035554130336
0.002313174576991787121
0.002318028334051043093
0.002319616656568647146
0.002313174576991785386
0.002319616656568640207
0.002318028334051042659
0.002407382690571367029
0.002414077566047312037
0.002414077566047302063
0.002318028334051053067
0.002313174576991789723
0.002319616656568641508
0.002293360355541305528
0.002285434303604711934
0.002293360355541310298
0.002319616656568645411
0.002313174576991787555
0.002318028334051053501
0.002414077566047317675
0.002407382690571366161
0.002414077566047308134
0.002318028334051048297
0.002319616656568641508
0.002313174576991786253
0.002319616656568644544
0.002318028334051040491
0.002313174576991795361
0.002293360355541303793
0.002293360355541310732
0.002285434303604711066
0.002414077566047314639