# vtk DataFile Version 2.0 
icosahedral triangles
ASCII
DATASET POLYDATA
POINTS 320 double 
0.1875924740850798689  0.5773502691896257311  0.7946544722917662229
-0.4911234731884229765  0.3568220897730898789  0.7946544722917662229
-0.4911234731884229765  -0.3568220897730898789  0.7946544722917662229
0.1875924740850798966  -0.5773502691896257311  0.7946544722917662229
0.6070619982066862708  0  0.7946544722917662229
0.7946544722917662229  0.5773502691896257311  -0.1875924740850798689
0.3035309991033431354  0.9341723589627156654  0.1875924740850798966
-0.3035309991033431354  0.9341723589627156654  -0.1875924740850798966
-0.7946544722917662229  0.5773502691896257311  0.1875924740850798689
-0.982246946376846064  0  -0.1875924740850798966
-0.7946544722917662229  -0.5773502691896257311  0.1875924740850798689
-0.3035309991033431354  -0.9341723589627156654  -0.1875924740850798966
0.3035309991033431354  -0.9341723589627156654  0.1875924740850798966
0.7946544722917662229  -0.5773502691896257311  -0.1875924740850798689
0.982246946376846064  0  0.1875924740850798966
0.4911234731884229765  0.3568220897730898789  -0.7946544722917662229
-0.1875924740850798689  0.5773502691896257311  -0.7946544722917662229
-0.6070619982066862708  0  -0.7946544722917662229
-0.1875924740850798966  -0.5773502691896257311  -0.7946544722917662229
0.4911234731884229765  -0.3568220897730898789  -0.7946544722917662229
0.0929955123574486564  0.2862107574136975585  0.9536431392413270425
0.4980039009403559036  0.5804665759181004692  0.6442442618216357442
-0.0617039263523970205  0.7623266731412418062  0.6442442618216357442
-0.2434654121530114568  0.1768879760275160473  0.9536431392413270425
-0.3981648508628571892  0.6530038917550602395  0.6442442618216357442
-0.7440833118991345696  0.1768879760275160196  0.6442442618216357442
-0.2434654121530114568  -0.1768879760275160473  0.9536431392413270425
-0.7440833118991345696  -0.1768879760275160196  0.6442442618216357442
-0.3981648508628571892  -0.6530038917550601285  0.6442442618216357442
0.0929955123574486564  -0.2862107574136975585  0.9536431392413270425
-0.06170392635239702744  -0.7623266731412416952  0.6442442618216357442
0.4980039009403559036  -0.5804665759181004692  0.6442442618216357442
0.3009397995911256007  0  0.9536431392413270425
0.7059481881740327092  -0.2942558185044029107  0.6442442618216357442
0.7059481881740327092  0.2942558185044029107  0.6442442618216357442
0.7989437005314814488  0.5804665759181004692  0.1573134375156128029
0.8945532116946972589  0.286210757413697614  -0.3433044622305101989
0.5486347506584199341  0.7623266731412416952  -0.3433044622305100879
0.305169338505408505  0.9392146491687578536  -0.1573134375156128029
-0.004229538914282881742  0.9392146491687577425  0.3433044622305100879
0.5554782883784699088  0.7573545519456166275  0.3433044622305101434
-0.305169338505408505  0.9392146491687578536  0.1573134375156128029
0.004229538914282881742  0.9392146491687577425  -0.3433044622305100879
-0.5554782883784699088  0.7573545519456166275  -0.3433044622305101434
-0.7989437005314814488  0.5804665759181004692  -0.1573134375156128029
-0.8945532116946972589  0.286210757413697614  0.3433044622305101989
-0.5486347506584199341  0.7623266731412416952  0.3433044622305100879
-0.9875487240521458876  0  0.1573134375156128306
-0.8919392128889300775  0.2942558185044028551  -0.3433044622305100879
-0.8919392128889299665  -0.2942558185044029107  -0.3433044622305100879
-0.7989437005314814488  -0.5804665759181004692  -0.1573134375156128029
-0.5486347506584199341  -0.7623266731412416952  0.3433044622305100879
-0.8945532116946972589  -0.2862107574136975585  0.3433044622305100879
-0.305169338505408505  -0.9392146491687578536  0.1573134375156128029
-0.5554782883784699088  -0.7573545519456166275  -0.3433044622305101989
0.004229538914282881742  -0.9392146491687577425  -0.3433044622305100879
0.305169338505408505  -0.9392146491687578536  -0.1573134375156128029
0.5554782883784699088  -0.7573545519456166275  0.3433044622305101989
-0.004229538914282881742  -0.9392146491687577425  0.3433044622305100879
0.7989437005314814488  -0.5804665759181004692  0.1573134375156128029
0.5486347506584199341  -0.7623266731412416952  -0.3433044622305100879
0.8945532116946972589  -0.2862107574136975585  -0.3433044622305100879
0.9875487240521458876  0  -0.1573134375156128306
0.8919392128889300775  0.2942558185044028551  0.3433044622305100879
0.8919392128889299665  -0.2942558185044029107  0.3433044622305100879
0.2434654121530114568  0.1768879760275160473  -0.9536431392413270425
0.3981648508628571892  0.6530038917550602395  -0.6442442618216357442
0.7440833118991345696  0.1768879760275160196  -0.6442442618216357442
-0.0929955123574486564  0.2862107574136975585  -0.9536431392413270425
-0.4980039009403559036  0.5804665759181004692  -0.6442442618216357442
0.0617039263523970205  0.7623266731412418062  -0.6442442618216357442
-0.3009397995911256007  0  -0.9536431392413270425
-0.7059481881740327092  -0.2942558185044029107  -0.6442442618216357442
-0.7059481881740327092  0.2942558185044029107  -0.6442442618216357442
-0.0929955123574486564  -0.2862107574136975585  -0.9536431392413270425
0.06170392635239702744  -0.7623266731412416952  -0.6442442618216357442
-0.4980039009403559036  -0.5804665759181004692  -0.6442442618216357442
0.2434654121530114568  -0.1768879760275160473  -0.9536431392413270425
0.7440833118991345696  -0.1768879760275160196  -0.6442442618216357442
0.3981648508628571892  -0.6530038917550601285  -0.6442442618216357442
0.04620485067343396701  0.1422039082552686573  0.9887583932645896967
0.2653264434951959627  0.3026484207917710667  0.9154265736663086406
-0.03676132347366800612  0.4008026862709713201  0.9154265736663086406
0.4681346131983349368  0.4499971811080298867  0.7604949184054238254
0.6200478384646693764  0.5591252432832621855  0.5503813590036678027
0.3846396079252525357  0.7069683842733566204  0.5935049078592590233
-0.1142271511041104276  0.6392179886628398533  0.7604949184054238254
0.1043656105916710847  0.7980349263489664446  0.5935049078592590233
-0.17298366645702698  0.8167967989655444683  0.5503813590036676917
0.2296966562781225518  0.7069336175713804016  0.6689426779942293511
0.009671004613038285472  0.5470756243846032207  0.8370273190726639223
0.3137389768173397542  0.4482779512218258433  0.8370273190726639223
-0.1209658695081636259  0.08788684863482779108  0.9887583932645896967
-0.205845372643371799  0.3458639483769214151  0.9154265736663086406
-0.3925458802156875371  0.08889274521159461206  0.9154265736663087516
-0.2833112002738141788  0.5842792507687898373  0.7604949184054238254
-0.3401543866386245729  0.762479739345103491  0.5503813590036678027
-0.5535067131192122902  0.5842792507687898373  0.5935049078592590233
-0.6432305643610806145  0.08889274521159461206  0.7604949184054238254
-0.7267255696341630156  0.3458639483769214151  0.5935049078592590233
-0.8302748108297124396  0.0878868486348277772  0.5503813590036675807
-0.6013536532383266797  0.436909003449033051  0.6689426779942293511
-0.5173113326991093386  0.1782533370994782984  0.8370273190726639223
-0.3293869909865927426  0.436909003449033051  0.8370273190726638113
-0.1209658695081636259  -0.08788684863482779108  0.9887583932645896967
-0.3925458802156875371  -0.08889274521159461206  0.9154265736663086406
-0.2058453726433717712  -0.3458639483769214151  0.9154265736663087516
-0.6432305643610806145  -0.08889274521159461206  0.7604949184054238254
-0.8302748108297124396  -0.0878868486348277772  0.5503813590036676917
-0.7267255696341630156  -0.3458639483769214151  0.5935049078592590233
-0.2833112002738142343  -0.5842792507687898373  0.7604949184054239364
-0.5535067131192124013  -0.5842792507687898373  0.5935049078592590233
-0.3401543866386245729  -0.762479739345103491  0.5503813590036676917
-0.6013536532383266797  -0.4369090034490329955  0.6689426779942294621
-0.3293869909865927426  -0.4369090034490329399  0.8370273190726639223
-0.5173113326991093386  -0.1782533370994783262  0.8370273190726639223
0.04620485067343396701  -0.1422039082552686573  0.9887583932645896967
-0.03676132347366800612  -0.4008026862709713201  0.9154265736663086406
0.2653264434951959627  -0.3026484207917710667  0.9154265736663086406
-0.1142271511041104276  -0.6392179886628398533  0.7604949184054238254
-0.1729836664570270077  -0.8167967989655443573  0.5503813590036676917
0.1043656105916710847  -0.7980349263489664446  0.5935049078592590233
0.4681346131983348813  -0.4499971811080298867  0.7604949184054238254
0.3846396079252525357  -0.7069683842733566204  0.5935049078592590233
0.6200478384646693764  -0.5591252432832621855  0.5503813590036676917
0.2296966562781225241  -0.7069336175713804016  0.6689426779942294621
0.3137389768173398097  -0.4482779512218257878  0.8370273190726638113
0.009671004613038290676  -0.5470756243846032207  0.8370273190726639223
0.1495220376694592623  0  0.9887583932645896967
0.3698261328375312962  -0.1588169376861265081  0.9154265736663086406
0.3698261328375312962  0.1588169376861265081  0.9154265736663086406
0.5726343025406702703  -0.3061656980023854113  0.7604949184054238254
0.7233650254606945884  -0.4169213350279935559  0.5503813590036678027
0.7912270642364519491  -0.1473487603162588755  0.5935049078592589122
0.5726343025406702703  0.3061656980023853558  0.7604949184054238254
0.791227064236451838  0.1473487603162588477  0.5935049078592590233
0.7233650254606945884  0.416921335027993667  0.5503813590036676917
0.7433139939204084223  0  0.6689426779942293511
0.5232883422553240571  0.1598579931867772641  0.8370273190726639223
0.5232883422553240571  -0.1598579931867772641  0.8370273190726639223
0.7695698761341286387  0.5591252432832621855  0.3084496199873404398
0.8895634971854828876  0.4499971811080299422  0.07860866027328214378
0.7028629896131671773  0.7069683842733567314  0.07860866027328214378
0.9374400116277369355  0.3026484207917710667  -0.1720760238721109892
0.9050358296644420708  0.1422039082552686573  -0.4008593213342084294
0.8023422552050378798  0.4008026862709713201  -0.4422715367175090728
0.5775206475404706108  0.7980349263489663336  -0.1720760238721109892
0.6291233986900872655  0.6392179886628398533  -0.4422715367175091283
0.4149154054733542041  0.8167967989655443573  -0.4008593213342084294
0.7529849985334465812  0.5470756243846032207  -0.3656799874039894926
0.7010439879467968982  0.7069336175713805126  -0.09371332515225555548
0.8889683296593134942  0.4482779512218257878  -0.09371332515225555548
0.2939495359651905781  0.9046836476003722316  -0.3084496199873404398
0.1530825132013172996  0.9850819370397613239  -0.0786086602732821299
0.4551702801701812962  0.8869276715605610706  -0.07860866027328214378
-0.001849142059567526492  0.9850819370397613239  0.1720760238721109892
-0.1444274982957312881  0.9046836476003722316  0.4008593213342084294
0.1332486143631315401  0.8869276715605610706  0.4422715367175091283
0.5805126222428778071  0.7958611294849513573  0.1720760238721109892
0.413522611696713005  0.7958611294849514683  0.4422715367175091838
0.6486040066259650683  0.6470120919180899488  0.4008593213342084294
0.2876146764209869255  0.8851869546708588388  0.3656799874039894371
0.4556993174994214413  0.8851869546708588388  0.09371332515225556936
0.1516313452951199292  0.9839846278336362717  0.09371332515225555548
-0.2939495359651905781  0.9046836476003722316  0.3084496199873404398
-0.1530825132013172996  0.9850819370397613239  0.0786086602732821299
-0.4551702801701812962  0.8869276715605610706  0.07860866027328214378
0.001849142059567526492  0.9850819370397613239  -0.1720760238721109892
0.1444274982957312881  0.9046836476003722316  -0.4008593213342084294
-0.1332486143631315401  0.8869276715605610706  -0.4422715367175091283
-0.5805126222428778071  0.7958611294849513573  -0.1720760238721109892
-0.413522611696713005  0.7958611294849514683  -0.4422715367175091838
-0.6486040066259650683  0.6470120919180899488  -0.4008593213342084294
-0.2876146764209869255  0.8851869546708588388  -0.3656799874039894371
-0.4556993174994214413  0.8851869546708588388  -0.09371332515225556936
-0.1516313452951199292  0.9839846278336362717  -0.09371332515225555548
-0.7695698761341286387  0.5591252432832621855  -0.3084496199873404398
-0.8895634971854828876  0.4499971811080299422  -0.07860866027328214378
-0.7028629896131671773  0.7069683842733567314  -0.07860866027328214378
-0.9374400116277369355  0.3026484207917710667  0.1720760238721109892
-0.9050358296644420708  0.1422039082552686573  0.4008593213342084294
-0.8023422552050378798  0.4008026862709713201  0.4422715367175090728
-0.5775206475404706108  0.7980349263489663336  0.1720760238721109892
-0.6291233986900872655  0.6392179886628398533  0.4422715367175091283
-0.4149154054733542041  0.8167967989655443573  0.4008593213342084294
-0.7529849985334465812  0.5470756243846032207  0.3656799874039894926
-0.7010439879467968982  0.7069336175713805126  0.09371332515225555548
-0.8889683296593134942  0.4482779512218257878  0.09371332515225555548
-0.9512406803378760101  0  0.3084496199873404398
-0.9841736934271514414  0.1588169376861265081  0.0786086602732821299
-0.9841736934271514414  -0.1588169376861265081  0.0786086602732821299
-0.9362971789848972826  0.3061656980023853003  -0.1720760238721109614
-0.815774726807562689  0.4169213350279935559  -0.4008593213342084294
-0.8846944278352807389  0.1473487603162588477  -0.4422715367175090728
-0.9362971789848972826  -0.3061656980023853003  -0.1720760238721109614
-0.8846944278352807389  -0.1473487603162588477  -0.4422715367175090728
-0.8157747268075625779  -0.4169213350279936114  -0.4008593213342083739
-0.9307406442249195333  0  -0.3656799874039894371
-0.9826816548115691052  -0.1598579931867772641  -0.09371332515225555548
-0.9826816548115691052  0.1598579931867772641  -0.09371332515225555548
-0.7695698761341286387  -0.5591252432832621855  -0.3084496199873404398
-0.7028629896131671773  -0.7069683842733567314  -0.07860866027328214378
-0.8895634971854828876  -0.4499971811080299422  -0.07860866027328214378
-0.5775206475404706108  -0.7980349263489663336  0.1720760238721109892
-0.4149154054733542041  -0.8167967989655444683  0.4008593213342084294
-0.6291233986900872655  -0.6392179886628398533  0.4422715367175091283
-0.9374400116277369355  -0.3026484207917710667  0.1720760238721109892
-0.8023422552050378798  -0.4008026862709713201  0.4422715367175090728
-0.9050358296644420708  -0.1422039082552686573  0.4008593213342084294
-0.7529849985334465812  -0.5470756243846032207  0.3656799874039894926
-0.8889683296593134942  -0.4482779512218257878  0.09371332515225555548
-0.7010439879467968982  -0.7069336175713805126  0.09371332515225555548
-0.2939495359651905781  -0.9046836476003722316  0.3084496199873404398
-0.4551702801701812962  -0.8869276715605610706  0.07860866027328214378
-0.1530825132013172996  -0.9850819370397613239  0.0786086602732821299
-0.5805126222428778071  -0.7958611294849513573  -0.1720760238721109892
-0.6486040066259650683  -0.6470120919180899488  -0.4008593213342084294
-0.413522611696713005  -0.7958611294849514683  -0.4422715367175091838
0.001849142059567526492  -0.9850819370397613239  -0.1720760238721109892
-0.1332486143631315123  -0.8869276715605610706  -0.4422715367175091283
0.1444274982957312881  -0.9046836476003722316  -0.4008593213342084294
-0.28761467642098687  -0.8851869546708588388  -0.3656799874039894371
-0.1516313452951199292  -0.9839846278336362717  -0.09371332515225555548
-0.4556993174994214413  -0.8851869546708588388  -0.09371332515225556936
0.2939495359651905781  -0.9046836476003722316  -0.3084496199873404398
0.4551702801701812962  -0.8869276715605610706  -0.07860866027328214378
0.1530825132013172996  -0.9850819370397613239  -0.0786086602732821299
0.5805126222428778071  -0.7958611294849513573  0.1720760238721109892
0.6486040066259650683  -0.6470120919180899488  0.4008593213342084294
0.413522611696713005  -0.7958611294849514683  0.4422715367175091838
-0.001849142059567526492  -0.9850819370397613239  0.1720760238721109892
0.1332486143631315123  -0.8869276715605610706  0.4422715367175091283
-0.1444274982957312881  -0.9046836476003722316  0.4008593213342084294
0.28761467642098687  -0.8851869546708588388  0.3656799874039894371
0.1516313452951199292  -0.9839846278336362717  0.09371332515225555548
0.4556993174994214413  -0.8851869546708588388  0.09371332515225556936
0.7695698761341286387  -0.5591252432832621855  0.3084496199873404398
0.7028629896131671773  -0.7069683842733567314  0.07860866027328214378
0.8895634971854828876  -0.4499971811080299422  0.07860866027328214378
0.5775206475404706108  -0.7980349263489663336  -0.1720760238721109892
0.4149154054733542041  -0.8167967989655444683  -0.4008593213342084294
0.6291233986900872655  -0.6392179886628398533  -0.4422715367175091283
0.9374400116277369355  -0.3026484207917710667  -0.1720760238721109892
0.8023422552050378798  -0.4008026862709713201  -0.4422715367175090728
0.9050358296644420708  -0.1422039082552686573  -0.4008593213342084294
0.7529849985334465812  -0.5470756243846032207  -0.3656799874039894926
0.8889683296593134942  -0.4482779512218257878  -0.09371332515225555548
0.7010439879467968982  -0.7069336175713805126  -0.09371332515225555548
0.9512406803378760101  0  -0.3084496199873404398
0.9841736934271514414  0.1588169376861265081  -0.0786086602732821299
0.9841736934271514414  -0.1588169376861265081  -0.0786086602732821299
0.9362971789848972826  0.3061656980023853003  0.1720760238721109614
0.815774726807562689  0.4169213350279935559  0.4008593213342084294
0.8846944278352807389  0.1473487603162588477  0.4422715367175090728
0.9362971789848972826  -0.3061656980023853003  0.1720760238721109614
0.8846944278352807389  -0.1473487603162588477  0.4422715367175090728
0.8157747268075625779  -0.4169213350279936114  0.4008593213342083739
0.9307406442249195333  0  0.3656799874039894371
0.9826816548115691052  -0.1598579931867772641  0.09371332515225555548
0.9826816548115691052  0.1598579931867772641  0.09371332515225555548
0.1209658695081636259  0.08788684863482779108  -0.9887583932645896967
0.205845372643371799  0.3458639483769214151  -0.9154265736663086406
0.3925458802156875371  0.08889274521159461206  -0.9154265736663087516
0.2833112002738141788  0.5842792507687898373  -0.7604949184054238254
0.3401543866386245729  0.762479739345103491  -0.5503813590036678027
0.5535067131192122902  0.5842792507687898373  -0.5935049078592590233
0.6432305643610806145  0.08889274521159461206  -0.7604949184054238254
0.7267255696341630156  0.3458639483769214151  -0.5935049078592590233
0.8302748108297124396  0.0878868486348277772  -0.5503813590036675807
0.6013536532383266797  0.436909003449033051  -0.6689426779942293511
0.5173113326991093386  0.1782533370994782984  -0.8370273190726639223
0.3293869909865927426  0.436909003449033051  -0.8370273190726638113
-0.04620485067343396701  0.1422039082552686573  -0.9887583932645896967
-0.2653264434951959627  0.3026484207917710667  -0.9154265736663086406
0.03676132347366800612  0.4008026862709713201  -0.9154265736663086406
-0.4681346131983349368  0.4499971811080298867  -0.7604949184054238254
-0.6200478384646693764  0.5591252432832621855  -0.5503813590036678027
-0.3846396079252525357  0.7069683842733566204  -0.5935049078592590233
0.1142271511041104276  0.6392179886628398533  -0.7604949184054238254
-0.1043656105916710847  0.7980349263489664446  -0.5935049078592590233
0.17298366645702698  0.8167967989655444683  -0.5503813590036676917
-0.2296966562781225518  0.7069336175713804016  -0.6689426779942293511
-0.009671004613038285472  0.5470756243846032207  -0.8370273190726639223
-0.3137389768173397542  0.4482779512218258433  -0.8370273190726639223
-0.1495220376694592623  0  -0.9887583932645896967
-0.3698261328375312962  -0.1588169376861265081  -0.9154265736663086406
-0.3698261328375312962  0.1588169376861265081  -0.9154265736663086406
-0.5726343025406702703  -0.3061656980023854113  -0.7604949184054238254
-0.7233650254606945884  -0.4169213350279935559  -0.5503813590036678027
-0.7912270642364519491  -0.1473487603162588755  -0.5935049078592589122
-0.5726343025406702703  0.3061656980023853558  -0.7604949184054238254
-0.791227064236451838  0.1473487603162588477  -0.5935049078592590233
-0.7233650254606945884  0.416921335027993667  -0.5503813590036676917
-0.7433139939204084223  0  -0.6689426779942293511
-0.5232883422553240571  0.1598579931867772641  -0.8370273190726639223
-0.5232883422553240571  -0.1598579931867772641  -0.8370273190726639223
-0.04620485067343396701  -0.1422039082552686573  -0.9887583932645896967
0.03676132347366800612  -0.4008026862709713201  -0.9154265736663086406
-0.2653264434951959627  -0.3026484207917710667  -0.9154265736663086406
0.1142271511041104276  -0.6392179886628398533  -0.7604949184054238254
0.1729836664570270077  -0.8167967989655443573  -0.5503813590036676917
-0.1043656105916710847  -0.7980349263489664446  -0.5935049078592590233
-0.4681346131983348813  -0.4499971811080298867  -0.7604949184054238254
-0.3846396079252525357  -0.7069683842733566204  -0.5935049078592590233
-0.6200478384646693764  -0.5591252432832621855  -0.5503813590036676917
-0.2296966562781225241  -0.7069336175713804016  -0.6689426779942294621
-0.3137389768173398097  -0.4482779512218257878  -0.8370273190726638113
-0.009671004613038290676  -0.5470756243846032207  -0.8370273190726639223
0.1209658695081636259  -0.08788684863482779108  -0.9887583932645896967
0.3925458802156875371  -0.08889274521159461206  -0.9154265736663086406
0.2058453726433717712  -0.3458639483769214151  -0.9154265736663087516
0.6432305643610806145  -0.08889274521159461206  -0.7604949184054238254
0.8302748108297124396  -0.0878868486348277772  -0.5503813590036676917
0.7267255696341630156  -0.3458639483769214151  -0.5935049078592590233
0.2833112002738142343  -0.5842792507687898373  -0.7604949184054239364
0.5535067131192124013  -0.5842792507687898373  -0.5935049078592590233
0.3401543866386245729  -0.762479739345103491  -0.5503813590036676917
0.6013536532383266797  -0.4369090034490329955  -0.6689426779942294621
0.3293869909865927426  -0.4369090034490329399  -0.8370273190726639223
0.5173113326991093386  -0.1782533370994783262  -0.8370273190726639223
POINT_DATA 320
SCALARS area double 1
LOOKUP_TABLE default
0.04674525637232734843
0.04674525637232734843
0.04674525637232734843
0.04674525637232732761
0.04674525637232733455
0.04674525637232732067
0.04674525637232734843
0.04674525637232734843
0.04674525637232732067
0.04674525637232734843
0.04674525637232732067
0.04674525637232734843
0.04674525637232734843
0.04674525637232732067
0.04674525637232734843
0.04674525637232734843
0.04674525637232734843
0.04674525637232733455
0.04674525637232732761
0.04674525637232734843
0.03861759749725200697
0.03861759749725198615
0.03861759749725202084
0.03861759749725199309
0.03861759749725200697
0.03861759749725201391
0.03861759749725199309
0.03861759749725201391
0.03861759749725203472
0.03861759749725200697
0.03861759749725200697
0.03861759749725198615
0.03861759749725201391
0.03861759749725203472
0.03861759749725203472
0.03861759749725202778
0.03861759749725203472
0.03861759749725206942
0.03861759749725206248
0.03861759749725203472
0.03861759749725201391
0.03861759749725206248
0.03861759749725203472
0.03861759749725201391
0.03861759749725202778
0.03861759749725203472
0.03861759749725206942
0.03861759749725199309
0.03861759749725200697
0.03861759749725202084
0.03861759749725202778
0.03861759749725206942
0.03861759749725202084
0.03861759749725206248
0.03861759749725203472
0.03861759749725203472
0.03861759749725206248
0.03861759749725203472
0.03861759749725203472
0.03861759749725202778
0.03861759749725206942
0.03861759749725202084
0.03861759749725199309
0.03861759749725200697
0.03861759749725202084
0.03861759749725199309
0.03861759749725200697
0.03861759749725201391
0.03861759749725200697
0.03861759749725198615
0.03861759749725202084
0.03861759749725201391
0.03861759749725203472
0.03861759749725203472
0.03861759749725200697
0.03861759749725200697
0.03861759749725198615
0.03861759749725199309
0.03861759749725201391
0.03861759749725203472
0.0366770166809717163
0.03709686473180147381
0.03709686473180150851
0.03709686473180145994
0.03667701668097170936
0.03709686473180153626
0.03709686473180151545
0.03709686473180153626
0.03667701668097175793
0.04436941447338365457
0.04436941447338361294
0.04436941447338364763
0.03667701668097174406
0.03709686473180149463
0.03709686473180150157
0.03709686473180153626
0.03667701668097179263
0.03709686473180150851
0.03709686473180152932
0.03709686473180150157
0.0366770166809717163
0.04436941447338364763
0.04436941447338364763
0.0443694144733836407
0.03667701668097174406
0.03709686473180150157
0.03709686473180151545
0.03709686473180152932
0.03667701668097174406
0.03709686473180149463
0.03709686473180148769
0.03709686473180151545
0.03667701668097173018
0.044369414473383606
0.0443694144733836407
0.04436941447338364763
0.0366770166809717163
0.03709686473180150851
0.03709686473180147381
0.03709686473180151545
0.03667701668097177181
0.0370968647318015432
0.03709686473180153626
0.03709686473180152932
0.03667701668097174406
0.04436941447338363376
0.04436941447338364763
0.04436941447338361294
0.03667701668097173018
0.03709686473180148075
0.03709686473180148075
0.03709686473180152239
0.03667701668097175099
0.0370968647318015432
0.03709686473180152239
0.03709686473180150157
0.03667701668097177875
0.04436941447338364763
0.0443694144733836407
0.0443694144733836407
0.03667701668097177181
0.03709686473180150157
0.03709686473180149463
0.03709686473180155014
0.03667701668097177181
0.03709686473180152932
0.03709686473180153626
0.03709686473180152239
0.03667701668097178569
0.04436941447338366845
0.0443694144733836407
0.04436941447338363376
0.03667701668097178569
0.03709686473180149463
0.03709686473180150157
0.03709686473180148769
0.03667701668097173712
0.0370968647318015432
0.0370968647318015432
0.03709686473180150851
0.03667701668097172324
0.04436941447338366151
0.0443694144733836407
0.04436941447338367539
0.03667701668097178569
0.03709686473180149463
0.03709686473180150157
0.03709686473180148769
0.03667701668097173712
0.0370968647318015432
0.0370968647318015432
0.03709686473180150851
0.03667701668097172324
0.04436941447338366151
0.0443694144733836407
0.04436941447338367539
0.03667701668097177181
0.03709686473180150157
0.03709686473180149463
0.03709686473180155014
0.03667701668097177181
0.03709686473180152932
0.03709686473180153626
0.03709686473180152239
0.03667701668097178569
0.04436941447338366845
0.0443694144733836407
0.04436941447338363376
0.03667701668097178569
0.03709686473180155014
0.03709686473180155014
0.03709686473180151545
0.03667701668097179263
0.03709686473180150851
0.03709686473180151545
0.03709686473180150851
0.03667701668097178569
0.0443694144733836407
0.0443694144733836407
0.0443694144733836407
0.03667701668097177181
0.03709686473180149463
0.03709686473180150157
0.0370968647318015432
0.03667701668097177181
0.03709686473180152239
0.03709686473180155014
0.03709686473180152932
0.03667701668097177181
0.04436941447338366151
0.04436941447338363376
0.0443694144733836407
0.03667701668097178569
0.03709686473180149463
0.03709686473180148769
0.0370968647318015432
0.03667701668097172324
0.03709686473180150157
0.03709686473180148769
0.03709686473180152932
0.03667701668097174406
0.04436941447338363376
0.04436941447338367539
0.0443694144733836407
0.03667701668097178569
0.03709686473180149463
0.03709686473180148769
0.0370968647318015432
0.03667701668097172324
0.03709686473180150157
0.03709686473180148769
0.03709686473180152932
0.03667701668097174406
0.04436941447338363376
0.04436941447338367539
0.0443694144733836407
0.03667701668097177181
0.03709686473180149463
0.03709686473180150157
0.0370968647318015432
0.03667701668097177181
0.03709686473180152239
0.03709686473180155014
0.03709686473180152932
0.03667701668097177181
0.04436941447338366151
0.04436941447338363376
0.0443694144733836407
0.03667701668097178569
0.03709686473180155014
0.03709686473180155014
0.03709686473180151545
0.03667701668097179263
0.03709686473180150851
0.03709686473180151545
0.03709686473180150851
0.03667701668097178569
0.0443694144733836407
0.0443694144733836407
0.0443694144733836407
0.03667701668097174406
0.03709686473180149463
0.03709686473180150157
0.03709686473180153626
0.03667701668097179263
0.03709686473180150851
0.03709686473180152932
0.03709686473180150157
0.0366770166809717163
0.04436941447338364763
0.04436941447338364763
0.0443694144733836407
0.0366770166809717163
0.03709686473180147381
0.03709686473180150851
0.03709686473180145994
0.03667701668097170936
0.03709686473180153626
0.03709686473180151545
0.03709686473180153626
0.03667701668097175793
0.04436941447338365457
0.04436941447338361294
0.04436941447338364763
0.03667701668097173018
0.03709686473180148075
0.03709686473180148075
0.03709686473180152239
0.03667701668097175099
0.0370968647318015432
0.03709686473180152239
0.03709686473180150157
0.03667701668097177875
0.04436941447338364763
0.0443694144733836407
0.0443694144733836407
0.0366770166809717163
0.03709686473180150851
0.03709686473180147381
0.03709686473180151545
0.03667701668097177181
0.0370968647318015432
0.03709686473180153626
0.03709686473180152932
0.03667701668097174406
0.04436941447338363376
0.04436941447338364763
0.04436941447338361294
0.03667701668097174406
0.03709686473180150157
0.03709686473180151545
0.03709686473180152932
0.03667701668097174406
0.03709686473180149463
0.03709686473180148769
0.03709686473180151545
0.03667701668097173018
0.044369414473383606
0.0443694144733836407
0.04436941447338364763
