# vtk DataFile Version 2.0 
spherical quadrilaterals
ASCII
DATASET POLYDATA
POINTS 96 double 
0.715161626732229494  -0.494238731611410298  0.4942387316114102425
0.816580766029181282  -0.550655368608694018  0.1731315037005652091
0.9613625806413188535  -0.1946560923046895819  0.1946560923046895819
0.816580766029181282  -0.1731315037005652369  0.5506553686086941291
0.816580766029181393  -0.550655368608694018  -0.1731315037005652369
0.715161626732229494  -0.494238731611410298  -0.4942387316114102425
0.816580766029181393  -0.1731315037005652369  -0.550655368608694018
0.9613625806413188535  -0.1946560923046896097  -0.1946560923046896097
0.9613625806413188535  0.1946560923046895819  -0.1946560923046895819
0.816580766029181393  0.1731315037005652369  -0.550655368608694018
0.715161626732229494  0.4942387316114102425  -0.494238731611410298
0.816580766029181282  0.550655368608694018  -0.1731315037005652369
0.816580766029181282  0.1731315037005652091  0.550655368608694018
0.9613625806413188535  0.1946560923046896097  0.1946560923046896097
0.816580766029181282  0.550655368608694018  0.1731315037005652091
0.715161626732229494  0.494238731611410298  0.494238731611410298
0.494238731611410298  0.715161626732229494  0.4942387316114102425
0.550655368608694018  0.816580766029181282  0.1731315037005652091
0.1946560923046895819  0.9613625806413188535  0.1946560923046895819
0.1731315037005652369  0.816580766029181282  0.5506553686086941291
0.550655368608694018  0.816580766029181393  -0.1731315037005652369
0.494238731611410298  0.715161626732229494  -0.4942387316114102425
0.1731315037005652369  0.816580766029181393  -0.550655368608694018
0.1946560923046896097  0.9613625806413188535  -0.1946560923046896097
-0.1946560923046895819  0.9613625806413188535  -0.1946560923046895819
-0.1731315037005652369  0.816580766029181393  -0.550655368608694018
-0.4942387316114102425  0.715161626732229494  -0.494238731611410298
-0.550655368608694018  0.816580766029181282  -0.1731315037005652369
-0.1731315037005652091  0.816580766029181282  0.550655368608694018
-0.1946560923046896097  0.9613625806413188535  0.1946560923046896097
-0.550655368608694018  0.816580766029181282  0.1731315037005652091
-0.494238731611410298  0.715161626732229494  0.494238731611410298
-0.715161626732229494  0.494238731611410298  0.4942387316114102425
-0.816580766029181282  0.550655368608694018  0.1731315037005652091
-0.9613625806413188535  0.1946560923046895819  0.1946560923046895819
-0.816580766029181282  0.1731315037005652369  0.5506553686086941291
-0.816580766029181393  0.550655368608694018  -0.1731315037005652369
-0.715161626732229494  0.494238731611410298  -0.4942387316114102425
-0.816580766029181393  0.1731315037005652369  -0.550655368608694018
-0.9613625806413188535  0.1946560923046896097  -0.1946560923046896097
-0.9613625806413188535  -0.1946560923046895819  -0.1946560923046895819
-0.816580766029181393  -0.1731315037005652369  -0.550655368608694018
-0.715161626732229494  -0.4942387316114102425  -0.494238731611410298
-0.816580766029181282  -0.550655368608694018  -0.1731315037005652369
-0.816580766029181282  -0.1731315037005652091  0.550655368608694018
-0.9613625806413188535  -0.1946560923046896097  0.1946560923046896097
-0.816580766029181282  -0.550655368608694018  0.1731315037005652091
-0.715161626732229494  -0.494238731611410298  0.494238731611410298
-0.494238731611410298  -0.715161626732229494  0.4942387316114102425
-0.550655368608694018  -0.816580766029181282  0.1731315037005652091
-0.1946560923046895819  -0.9613625806413188535  0.1946560923046895819
-0.1731315037005652369  -0.816580766029181282  0.5506553686086941291
-0.550655368608694018  -0.816580766029181393  -0.1731315037005652369
-0.494238731611410298  -0.715161626732229494  -0.4942387316114102425
-0.1731315037005652369  -0.816580766029181393  -0.550655368608694018
-0.1946560923046896097  -0.9613625806413188535  -0.1946560923046896097
0.1946560923046895819  -0.9613625806413188535  -0.1946560923046895819
0.1731315037005652369  -0.816580766029181393  -0.550655368608694018
0.4942387316114102425  -0.715161626732229494  -0.494238731611410298
0.550655368608694018  -0.816580766029181282  -0.1731315037005652369
0.1731315037005652091  -0.816580766029181282  0.550655368608694018
0.1946560923046896097  -0.9613625806413188535  0.1946560923046896097
0.550655368608694018  -0.816580766029181282  0.1731315037005652091
0.494238731611410298  -0.715161626732229494  0.494238731611410298
-0.494238731611410298  -0.494238731611410298  0.715161626732229494
-0.1731315037005652091  -0.550655368608694018  0.816580766029181282
-0.1946560923046896097  -0.1946560923046896097  0.9613625806413188535
-0.5506553686086941291  -0.1731315037005652369  0.816580766029181282
0.1731315037005652369  -0.550655368608694018  0.816580766029181393
0.4942387316114102425  -0.494238731611410298  0.715161626732229494
0.550655368608694018  -0.1731315037005652369  0.816580766029181393
0.1946560923046896097  -0.1946560923046896097  0.9613625806413188535
0.1946560923046896097  0.1946560923046896097  0.9613625806413188535
0.550655368608694018  0.1731315037005652369  0.816580766029181393
0.494238731611410298  0.4942387316114102425  0.715161626732229494
0.1731315037005652369  0.550655368608694018  0.816580766029181282
-0.550655368608694018  0.1731315037005652091  0.816580766029181282
-0.1946560923046896374  0.1946560923046896374  0.9613625806413188535
-0.1731315037005652091  0.550655368608694018  0.816580766029181282
-0.4942387316114102425  0.4942387316114102425  0.715161626732229494
0.494238731611410298  -0.494238731611410298  -0.715161626732229494
0.1731315037005652091  -0.550655368608694018  -0.816580766029181282
0.1946560923046896097  -0.1946560923046896097  -0.9613625806413188535
0.5506553686086941291  -0.1731315037005652369  -0.816580766029181282
-0.1731315037005652369  -0.550655368608694018  -0.816580766029181393
-0.4942387316114102425  -0.494238731611410298  -0.715161626732229494
-0.550655368608694018  -0.1731315037005652369  -0.816580766029181393
-0.1946560923046896097  -0.1946560923046896097  -0.9613625806413188535
-0.1946560923046896097  0.1946560923046896097  -0.9613625806413188535
-0.550655368608694018  0.1731315037005652369  -0.816580766029181393
-0.494238731611410298  0.4942387316114102425  -0.715161626732229494
-0.1731315037005652369  0.550655368608694018  -0.816580766029181282
0.550655368608694018  0.1731315037005652091  -0.816580766029181282
0.1946560923046896374  0.1946560923046896374  -0.9613625806413188535
0.1731315037005652091  0.550655368608694018  -0.816580766029181282
0.4942387316114102425  0.4942387316114102425  -0.715161626732229494
POINT_DATA 96
SCALARS area double 1
LOOKUP_TABLE default
0.1098045377218316715
0.1311968200873794843
0.1514005977017081062
0.1311968200873795121
0.1311968200873795121
0.1098045377218316715
0.1311968200873795121
0.1514005977017082727
0.1514005977017081339
0.1311968200873795121
0.1098045377218316299
0.1311968200873794843
0.1311968200873795121
0.1514005977017082172
0.1311968200873794843
0.1098045377218316299
0.1098045377218316715
0.1311968200873794843
0.1514005977017081062
0.1311968200873795121
0.1311968200873795121
0.1098045377218316715
0.1311968200873795121
0.1514005977017082727
0.1514005977017081339
0.1311968200873795121
0.1098045377218316299
0.1311968200873794843
0.1311968200873795121
0.1514005977017082172
0.1311968200873794843
0.1098045377218316299
0.1098045377218316715
0.1311968200873794843
0.1514005977017081062
0.1311968200873795121
0.1311968200873795121
0.1098045377218316715
0.1311968200873795121
0.1514005977017082727
0.1514005977017081339
0.1311968200873795121
0.1098045377218316299
0.1311968200873794843
0.1311968200873795121
0.1514005977017082172
0.1311968200873794843
0.1098045377218316299
0.1098045377218316715
0.1311968200873794843
0.1514005977017081062
0.1311968200873795121
0.1311968200873795121
0.1098045377218316715
0.1311968200873795121
0.1514005977017082727
0.1514005977017081339
0.1311968200873795121
0.1098045377218316299
0.1311968200873794843
0.1311968200873795121
0.1514005977017082172
0.1311968200873794843
0.1098045377218316299
0.1098045377218316021
0.1311968200873794843
0.1514005977017082449
0.1311968200873795398
0.1311968200873794843
0.1098045377218316299
0.1311968200873794843
0.1514005977017082727
0.1514005977017082449
0.1311968200873795121
0.1098045377218316299
0.1311968200873795121
0.1311968200873795121
0.1514005977017082449
0.1311968200873795121
0.1098045377218316576
0.1098045377218316021
0.1311968200873794843
0.1514005977017082449
0.1311968200873795398
0.1311968200873794843
0.1098045377218316299
0.1311968200873794843
0.1514005977017082727
0.1514005977017082449
0.1311968200873795121
0.1098045377218316299
0.1311968200873795121
0.1311968200873795121
0.1514005977017082449
0.1311968200873795121
0.1098045377218316576
