# vtk DataFile Version 2.0 
spherical quadrilaterals
ASCII
DATASET POLYDATA
POINTS 384 double 
0.6438627212511376374  -0.5410364110589415132  0.5410364110589415132
0.704840921179683666  -0.5867762890630180417  0.398613675661044442
0.7871449016106689678  -0.4361209143507855379  0.4361209143507854824
0.704840921179683666  -0.3986136756610444976  0.5867762890630180417
0.7473454262738620235  -0.6178738547551664295  0.2443495722065640308
0.7696725131948607412  -0.6331171875329174581  0.08226086118389140667
0.8770318268176726662  -0.4717774622549865127  0.09078106001309119155
0.8455974364673857213  -0.4610010753162175345  0.2691523434731279973
0.915096652500931862  -0.2851298972236941398  0.2851298972236940843
0.9517929505644772137  -0.2912429493309202089  0.0962690174500274165
0.9902732041985747857  -0.09838440182846007465  0.09838440182846007465
0.9517929505644772137  -0.09626901745002740263  0.2912429493309202644
0.7473454262738621345  -0.2443495722065640308  0.6178738547551664295
0.8455974364673857213  -0.2691523434731280529  0.46100107531621759
0.8770318268176726662  -0.09078106001309120543  0.4717774622549865127
0.7696725131948607412  -0.08226086118389142054  0.6331171875329174581
0.7696725131948607412  -0.6331171875329174581  -0.08226086118389140667
0.7473454262738621345  -0.6178738547551664295  -0.2443495722065640308
0.8455974364673857213  -0.4610010753162175345  -0.2691523434731279973
0.8770318268176726662  -0.4717774622549865127  -0.09078106001309117767
0.704840921179683777  -0.5867762890630180417  -0.3986136756610445531
0.6438627212511376374  -0.5410364110589415132  -0.5410364110589415132
0.704840921179683777  -0.3986136756610444976  -0.5867762890630179307
0.7871449016106689678  -0.4361209143507853714  -0.4361209143507853714
0.8455974364673857213  -0.2691523434731279973  -0.4610010753162175345
0.7473454262738621345  -0.2443495722065640308  -0.6178738547551664295
0.7696725131948607412  -0.08226086118389140667  -0.6331171875329174581
0.8770318268176726662  -0.09078106001309117767  -0.4717774622549864572
0.9517929505644772137  -0.2912429493309202089  -0.09626901745002740263
0.915096652500931862  -0.2851298972236940843  -0.2851298972236940843
0.9517929505644772137  -0.09626901745002740263  -0.2912429493309202089
0.9902732041985747857  -0.09838440182846008852  -0.09838440182846008852
0.9902732041985747857  0.09838440182846007465  -0.09838440182846007465
0.9517929505644772137  0.0962690174500274165  -0.2912429493309202089
0.9150966525009317509  0.2851298972236940843  -0.2851298972236941398
0.9517929505644772137  0.2912429493309202644  -0.09626901745002740263
0.8770318268176726662  0.09078106001309120543  -0.4717774622549865127
0.7696725131948607412  0.08226086118389140667  -0.6331171875329174581
0.7473454262738620235  0.2443495722065640585  -0.6178738547551664295
0.8455974364673857213  0.2691523434731280529  -0.4610010753162175345
0.7871449016106689678  0.4361209143507854824  -0.4361209143507854824
0.704840921179683666  0.3986136756610444976  -0.5867762890630179307
0.6438627212511376374  0.5410364110589414022  -0.5410364110589415132
0.704840921179683666  0.5867762890630180417  -0.3986136756610444976
0.8770318268176726662  0.4717774622549865127  -0.09078106001309120543
0.8455974364673857213  0.4610010753162175345  -0.2691523434731279973
0.7473454262738621345  0.6178738547551664295  -0.2443495722065640308
0.7696725131948607412  0.6331171875329174581  -0.08226086118389142054
0.7696725131948607412  0.08226086118389139279  0.6331171875329174581
0.8770318268176726662  0.09078106001309119155  0.4717774622549865682
0.8455974364673856103  0.2691523434731280529  0.4610010753162176456
0.7473454262738621345  0.2443495722065640585  0.6178738547551664295
0.9517929505644772137  0.0962690174500274165  0.2912429493309202089
0.9902732041985747857  0.09838440182846008852  0.09838440182846008852
0.9517929505644772137  0.2912429493309202089  0.0962690174500274165
0.915096652500931862  0.2851298972236940843  0.2851298972236940843
0.8455974364673856103  0.4610010753162176456  0.2691523434731280529
0.8770318268176726662  0.4717774622549865682  0.09078106001309119155
0.7696725131948607412  0.6331171875329174581  0.08226086118389142054
0.7473454262738621345  0.6178738547551664295  0.2443495722065640585
0.704840921179683666  0.3986136756610444976  0.5867762890630180417
0.7871449016106689678  0.4361209143507854824  0.4361209143507854824
0.704840921179683666  0.5867762890630180417  0.3986136756610443865
0.6438627212511376374  0.5410364110589415132  0.5410364110589415132
0.5410364110589415132  0.6438627212511376374  0.5410364110589415132
0.5867762890630180417  0.704840921179683666  0.398613675661044442
0.4361209143507855379  0.7871449016106689678  0.4361209143507854824
0.3986136756610444976  0.704840921179683666  0.5867762890630180417
0.6178738547551664295  0.7473454262738620235  0.2443495722065640308
0.6331171875329174581  0.7696725131948607412  0.08226086118389140667
0.4717774622549865127  0.8770318268176726662  0.09078106001309119155
0.4610010753162175345  0.8455974364673857213  0.2691523434731279973
0.2851298972236941398  0.915096652500931862  0.2851298972236940843
0.2912429493309202089  0.9517929505644772137  0.0962690174500274165
0.09838440182846007465  0.9902732041985747857  0.09838440182846007465
0.09626901745002740263  0.9517929505644772137  0.2912429493309202644
0.2443495722065640308  0.7473454262738621345  0.6178738547551664295
0.2691523434731280529  0.8455974364673857213  0.46100107531621759
0.09078106001309120543  0.8770318268176726662  0.4717774622549865127
0.08226086118389142054  0.7696725131948607412  0.6331171875329174581
0.6331171875329174581  0.7696725131948607412  -0.08226086118389140667
0.6178738547551664295  0.7473454262738621345  -0.2443495722065640308
0.4610010753162175345  0.8455974364673857213  -0.2691523434731279973
0.4717774622549865127  0.8770318268176726662  -0.09078106001309117767
0.5867762890630180417  0.704840921179683777  -0.3986136756610445531
0.5410364110589415132  0.6438627212511376374  -0.5410364110589415132
0.3986136756610444976  0.704840921179683777  -0.5867762890630179307
0.4361209143507853714  0.7871449016106689678  -0.4361209143507853714
0.2691523434731279973  0.8455974364673857213  -0.4610010753162175345
0.2443495722065640308  0.7473454262738621345  -0.6178738547551664295
0.08226086118389140667  0.7696725131948607412  -0.6331171875329174581
0.09078106001309117767  0.8770318268176726662  -0.4717774622549864572
0.2912429493309202089  0.9517929505644772137  -0.09626901745002740263
0.2851298972236940843  0.915096652500931862  -0.2851298972236940843
0.09626901745002740263  0.9517929505644772137  -0.2912429493309202089
0.09838440182846008852  0.9902732041985747857  -0.09838440182846008852
-0.09838440182846007465  0.9902732041985747857  -0.09838440182846007465
-0.0962690174500274165  0.9517929505644772137  -0.2912429493309202089
-0.2851298972236940843  0.9150966525009317509  -0.2851298972236941398
-0.2912429493309202644  0.9517929505644772137  -0.09626901745002740263
-0.09078106001309120543  0.8770318268176726662  -0.4717774622549865127
-0.08226086118389140667  0.7696725131948607412  -0.6331171875329174581
-0.2443495722065640585  0.7473454262738620235  -0.6178738547551664295
-0.2691523434731280529  0.8455974364673857213  -0.4610010753162175345
-0.4361209143507854824  0.7871449016106689678  -0.4361209143507854824
-0.3986136756610444976  0.704840921179683666  -0.5867762890630179307
-0.5410364110589414022  0.6438627212511376374  -0.5410364110589415132
-0.5867762890630180417  0.704840921179683666  -0.3986136756610444976
-0.4717774622549865127  0.8770318268176726662  -0.09078106001309120543
-0.4610010753162175345  0.8455974364673857213  -0.2691523434731279973
-0.6178738547551664295  0.7473454262738621345  -0.2443495722065640308
-0.6331171875329174581  0.7696725131948607412  -0.08226086118389142054
-0.08226086118389139279  0.7696725131948607412  0.6331171875329174581
-0.09078106001309119155  0.8770318268176726662  0.4717774622549865682
-0.2691523434731280529  0.8455974364673856103  0.4610010753162176456
-0.2443495722065640585  0.7473454262738621345  0.6178738547551664295
-0.0962690174500274165  0.9517929505644772137  0.2912429493309202089
-0.09838440182846008852  0.9902732041985747857  0.09838440182846008852
-0.2912429493309202089  0.9517929505644772137  0.0962690174500274165
-0.2851298972236940843  0.915096652500931862  0.2851298972236940843
-0.4610010753162176456  0.8455974364673856103  0.2691523434731280529
-0.4717774622549865682  0.8770318268176726662  0.09078106001309119155
-0.6331171875329174581  0.7696725131948607412  0.08226086118389142054
-0.6178738547551664295  0.7473454262738621345  0.2443495722065640585
-0.3986136756610444976  0.704840921179683666  0.5867762890630180417
-0.4361209143507854824  0.7871449016106689678  0.4361209143507854824
-0.5867762890630180417  0.704840921179683666  0.3986136756610443865
-0.5410364110589415132  0.6438627212511376374  0.5410364110589415132
-0.6438627212511376374  0.5410364110589415132  0.5410364110589415132
-0.704840921179683666  0.5867762890630180417  0.398613675661044442
-0.7871449016106689678  0.4361209143507855379  0.4361209143507854824
-0.704840921179683666  0.3986136756610444976  0.5867762890630180417
-0.7473454262738620235  0.6178738547551664295  0.2443495722065640308
-0.7696725131948607412  0.6331171875329174581  0.08226086118389140667
-0.8770318268176726662  0.4717774622549865127  0.09078106001309119155
-0.8455974364673857213  0.4610010753162175345  0.2691523434731279973
-0.915096652500931862  0.2851298972236941398  0.2851298972236940843
-0.9517929505644772137  0.2912429493309202089  0.0962690174500274165
-0.9902732041985747857  0.09838440182846007465  0.09838440182846007465
-0.9517929505644772137  0.09626901745002740263  0.2912429493309202644
-0.7473454262738621345  0.2443495722065640308  0.6178738547551664295
-0.8455974364673857213  0.2691523434731280529  0.46100107531621759
-0.8770318268176726662  0.09078106001309120543  0.4717774622549865127
[...]
POINT_DATA 384
SCALARS area double 1
LOOKUP_TABLE default
0.02419854924644337935
0.02749835166627720429
0.03060928514283380031
0.02749835166627719735
0.03025828090542342225
0.03181827289492369232
0.03530684668096120693
0.03381341960607119057
0.03697808057776323654
0.03785148211696418019
0.03871955289001659251
0.03785148211696418713
0.03025828090542341184
0.03381341960607120445
0.03530684668096121387
0.03181827289492369232
0.0318182728949237062
0.03025828090542343959
0.03381341960607117669
0.03530684668096117917
0.02749835166627720429
0.02419854924644337588
0.02749835166627720429
0.03060928514283377949
0.03381341960607119751
0.03025828090542344306
0.03181827289492369232
0.03530684668096118611
0.03785148211696418019
0.03697808057776322266
0.03785148211696418019
0.03871955289001659944
0.03871955289001659251
0.03785148211696418019
0.03697808057776324347
0.03785148211696419407
0.03530684668096120693
0.03181827289492369232
0.03025828090542345
0.03381341960607119057
0.03060928514283380031
0.02749835166627719388
0.02419854924644337935
0.02749835166627720082
0.03530684668096120693
0.03381341960607118363
0.03025828090542342919
0.03181827289492372007
0.03181827289492368538
0.03530684668096120693
0.03381341960607120445
0.03025828090542343612
0.03785148211696418019
0.03871955289001659944
0.03785148211696418019
0.0369780805777632296
0.03381341960607119057
0.03530684668096119999
0.03181827289492369926
0.03025828090542342919
0.02749835166627719735
0.03060928514283380725
0.02749835166627720429
0.02419854924644337588
0.02419854924644337935
0.02749835166627720429
0.03060928514283380031
0.02749835166627719735
0.03025828090542342225
0.03181827289492369232
0.03530684668096120693
0.03381341960607119057
0.03697808057776323654
0.03785148211696418019
0.03871955289001659251
0.03785148211696418713
0.03025828090542341184
0.03381341960607120445
0.03530684668096121387
0.03181827289492369232
0.0318182728949237062
0.03025828090542343959
0.03381341960607117669
0.03530684668096117917
0.02749835166627720429
0.02419854924644337588
0.02749835166627720429
0.03060928514283377949
0.03381341960607119751
0.03025828090542344306
0.03181827289492369232
0.03530684668096118611
0.03785148211696418019
0.03697808057776322266
0.03785148211696418019
0.03871955289001659944
0.03871955289001659251
0.03785148211696418019
0.03697808057776324347
0.03785148211696419407
0.03530684668096120693
0.03181827289492369232
0.03025828090542345
0.03381341960607119057
0.03060928514283380031
0.02749835166627719388
0.02419854924644337935
0.02749835166627720082
0.03530684668096120693
0.03381341960607118363
0.03025828090542342919
0.03181827289492372007
0.03181827289492368538
0.03530684668096120693
0.03381341960607120445
0.03025828090542343612
0.03785148211696418019
0.03871955289001659944
0.03785148211696418019
0.0369780805777632296
0.03381341960607119057
0.03530684668096119999
0.03181827289492369926
0.03025828090542342919
0.02749835166627719735
0.03060928514283380725
0.02749835166627720429
0.02419854924644337588
0.02419854924644337935
0.02749835166627720429
0.03060928514283380031
0.02749835166627719735
0.03025828090542342225
0.03181827289492369232
0.03530684668096120693
0.03381341960607119057
0.03697808057776323654
0.03785148211696418019
0.03871955289001659251
0.03785148211696418713
0.03025828090542341184
0.03381341960607120445
0.03530684668096121387
0.03181827289492369232
0.0318182728949237062
0.03025828090542343959
0.03381341960607117669
0.03530684668096117917
0.02749835166627720429
0.02419854924644337588
0.02749835166627720429
0.03060928514283377949
0.03381341960607119751
0.03025828090542344306
0.03181827289492369232
0.03530684668096118611
0.03785148211696418019
0.03697808057776322266
0.03785148211696418019
0.03871955289001659944
0.03871955289001659251
0.03785148211696418019
0.03697808057776324347
0.03785148211696419407
0.03530684668096120693
0.03181827289492369232
0.03025828090542345
0.03381341960607119057
0.03060928514283380031
0.02749835166627719388
0.02419854924644337935
0.02749835166627720082
0.03530684668096120693
0.03381341960607118363
0.03025828090542342919
0.03181827289492372007
0.03181827289492368538
0.03530684668096120693
0.03381341960607120445
0.03025828090542343612
0.03785148211696418019
0.03871955289001659944
0.03785148211696418019
0.0369780805777632296
0.03381341960607119057
0.03530684668096119999
0.03181827289492369926
0.03025828090542342919
0.02749835166627719735
0.03060928514283380725
0.02749835166627720429
0.02419854924644337588
0.02419854924644337935
0.02749835166627720429
0.03060928514283380031
0.02749835166627719735
0.03025828090542342225
0.03181827289492369232
0.03530684668096120693
0.03381341960607119057
0.03697808057776323654
0.03785148211696418019
0.03871955289001659251
0.03785148211696418713
0.03025828090542341184
0.03381341960607120445
0.03530684668096121387
0.03181827289492369232
0.0318182728949237062
0.03025828090542343959
0.03381341960607117669
0.03530684668096117917
0.02749835166627720429
0.02419854924644337588
0.02749835166627720429
0.03060928514283377949
0.03381341960607119751
0.03025828090542344306
0.03181827289492369232
0.03530684668096118611
0.03785148211696418019
0.03697808057776322266
0.03785148211696418019
0.03871955289001659944
0.03871955289001659251
0.03785148211696418019
0.03697808057776324347
0.03785148211696419407
0.03530684668096120693
0.03181827289492369232
0.03025828090542345
0.03381341960607119057
0.03060928514283380031
0.02749835166627719388
0.02419854924644337935
0.02749835166627720082
0.03530684668096120693
0.03381341960607118363
0.03025828090542342919
0.03181827289492372007
0.03181827289492368538
0.03530684668096120693
0.03381341960607120445
0.03025828090542343612
0.03785148211696418019
0.03871955289001659944
0.03785148211696418019
0.0369780805777632296
0.03381341960607119057
0.03530684668096119999
0.03181827289492369926
0.03025828090542342919
0.02749835166627719735
0.03060928514283380725
0.02749835166627720429
0.02419854924644337588
0.02419854924644338282
0.02749835166627720776
0.03060928514283382806
0.02749835166627721122
0.03025828090542342572
0.03181827289492368538
0.03530684668096121387
0.03381341960607118363
0.03697808057776322266
0.03785148211696418019
0.03871955289001660638
0.03785148211696418019
0.03025828090542341184
0.03381341960607119057
0.03530684668096122081
0.03181827289492369232
0.03181827289492369232
0.03025828090542345347
0.03381341960607119057
0.03530684668096120693
0.02749835166627719735
0.02419854924644338628
0.02749835166627720429
0.03060928514283380725
0.03381341960607119057
0.03025828090542345347
0.03181827289492369232
0.03530684668096120693
0.03785148211696418713
0.03697808057776322266
0.03785148211696418019
0.03871955289001659944
0.03871955289001659944
0.03785148211696418019
0.0369780805777632296
0.03785148211696418019
0.03530684668096122081
0.03181827289492369232
0.03025828090542343266
0.03381341960607116282
0.03060928514283382806
0.02749835166627720776
0.02419854924644338628
0.02749835166627721816
0.03530684668096120693
0.03381341960607116282
0.03025828090542341878
0.03181827289492369926
0.03181827289492368538
0.03530684668096120693
0.03381341960607118363
0.03025828090542342919
0.03785148211696418019
0.03871955289001659944
0.03785148211696418019
0.03697808057776322266
0.03381341960607118363
0.03530684668096119999
0.03181827289492369232
0.03025828090542342919
0.02749835166627721122
0.03060928514283381419
0.02749835166627720429
0.02419854924644338628
0.02419854924644338282
0.02749835166627720776
0.03060928514283382806
0.02749835166627721122
0.03025828090542342572
0.03181827289492368538
0.03530684668096121387
0.03381341960607118363
0.03697808057776322266
0.03785148211696418019
0.03871955289001660638
0.03785148211696418019
0.03025828090542341184
0.03381341960607119057
0.03530684668096122081
0.03181827289492369232
0.03181827289492369232
0.03025828090542345347
0.03381341960607119057
0.03530684668096120693
0.02749835166627719735
0.02419854924644338628
0.02749835166627720429
0.03060928514283380725
0.03381341960607119057
0.03025828090542345347
0.03181827289492369232
0.03530684668096120693
0.03785148211696418713
0.03697808057776322266
0.03785148211696418019
0.03871955289001659944
0.03871955289001659944
0.03785148211696418019
0.0369780805777632296
0.03785148211696418019
0.03530684668096122081
0.03181827289492369232
0.03025828090542343266
0.03381341960607116282
0.03060928514283382806
0.02749835166627720776
0.02419854924644338628
0.02749835166627721816
0.03530684668096120693
0.03381341960607116282
0.03025828090542341878
0.03181827289492369926
0.03181827289492368538
0.03530684668096120693
0.03381341960607118363
0.03025828090542342919
0.03785148211696418019
0.03871955289001659944
0.03785148211696418019
0.03697808057776322266
0.03381341960607118363
0.03530684668096119999
0.03181827289492369232
0.03025828090542342919
0.02749835166627721122
0.03060928514283381419
0.02749835166627720429
0.02419854924644338628
