# vtk DataFile Version 2.0 
spherical quadrilaterals
ASCII
DATASET POLYDATA
POINTS 24 double 
0.8547634353587376665  -0.3670010010706571402  0.3670010010706571402
0.8547634353587376665  -0.3670010010706570847  -0.3670010010706570847
0.8547634353587376665  0.3670010010706571402  -0.3670010010706571402
0.8547634353587376665  0.3670010010706571402  0.3670010010706571402
0.3670010010706571402  0.8547634353587376665  0.3670010010706571402
0.3670010010706570847  0.8547634353587376665  -0.3670010010706570847
-0.3670010010706571402  0.8547634353587376665  -0.3670010010706571402
-0.3670010010706571402  0.8547634353587376665  0.3670010010706571402
-0.8547634353587376665  0.3670010010706571402  0.3670010010706571402
-0.8547634353587376665  0.3670010010706570847  -0.3670010010706570847
-0.8547634353587376665  -0.3670010010706571402  -0.3670010010706571402
-0.8547634353587376665  -0.3670010010706571402  0.3670010010706571402
-0.3670010010706571402  -0.8547634353587376665  0.3670010010706571402
-0.3670010010706570847  -0.8547634353587376665  -0.3670010010706570847
0.3670010010706571402  -0.8547634353587376665  -0.3670010010706571402
0.3670010010706571402  -0.8547634353587376665  0.3670010010706571402
-0.3670010010706571957  -0.3670010010706571957  0.8547634353587377776
0.3670010010706570847  -0.3670010010706570847  0.8547634353587376665
0.3670010010706571957  0.3670010010706571957  0.8547634353587377776
-0.3670010010706571957  0.3670010010706571957  0.8547634353587377776
0.3670010010706571957  -0.3670010010706571957  -0.8547634353587377776
-0.3670010010706570847  -0.3670010010706570847  -0.8547634353587376665
-0.3670010010706571957  0.3670010010706571957  -0.8547634353587377776
0.3670010010706571957  0.3670010010706571957  -0.8547634353587377776
POINT_DATA 24
SCALARS area double 1
LOOKUP_TABLE default
0.5235987755982989267
0.5235987755982988157
0.5235987755982989267
0.5235987755982989267
0.5235987755982989267
0.5235987755982988157
0.5235987755982989267
0.5235987755982989267
0.5235987755982989267
0.5235987755982988157
0.5235987755982989267
0.5235987755982989267
0.5235987755982989267
0.5235987755982988157
0.5235987755982989267
0.5235987755982989267
0.5235987755982990377
0.5235987755982988157
0.5235987755982990377
0.5235987755982990377
0.5235987755982990377
0.5235987755982988157
0.5235987755982990377
0.5235987755982990377
