# vtk DataFile Version 2.0 
spherical quadrilaterals
ASCII
DATASET POLYDATA
POINTS 6144 double 
0.5933140365351186052  -0.5692005156578847647  0.5692005156578847647
0.6090747826256546205  -0.5838721745289567888  0.5367692176162294215
0.6266297603565050833  -0.5510604065960233999  0.5510604065960232889
0.6090747826256547315  -0.5367692176162293105  0.5838721745289568998
0.6239135234231949489  -0.5976624371156397109  0.5035191421889025909
0.637807306225831705  -0.6105500070089104891  0.4695002971951854343
0.6587361908438066349  -0.5770100000726311462  0.4828313273688587537
0.6431926524414229851  -0.5644813752280143371  0.5173625313704662831
0.6614052208859386717  -0.5303504189612858744  0.5303504189612856523
0.678519905312395144  -0.5424604105902305351  0.4953255909370488652
0.6971234809559402335  -0.5069609710322249274  0.5069609710322249274
0.678519905312395144  -0.4953255909370489207  0.5424604105902305351
0.6239135234231949489  -0.5035191421889025909  0.5976624371156397109
0.6431926524414229851  -0.5173625313704662831  0.5644813752280143371
0.6587361908438066349  -0.4828313273688588647  0.5770100000726311462
0.637807306225831705  -0.4695002971951854898  0.6105500070089104891
0.6507359482376773308  -0.6225229172910354825  0.434750437744080398
0.662678176089620985  -0.6335614984173263409  0.3993212524493600091
0.6866759152914473363  -0.5993788810925830823  0.4113649769473042284
0.6732398470495217779  -0.5886500017116141903  0.4474810429835583969
0.6736132730417578873  -0.6436404361452769951  0.3632797095086484074
0.6835241206607040043  -0.652743982550097579  0.3266803785348135758
0.7102368354501138459  -0.6179568636529854109  0.3371838552392056321
0.6990151643259773229  -0.6091533323944833267  0.3745797881293423948
0.7230515932291592396  -0.5734595905585121445  0.3851499597887008686
0.7355076115438302642  -0.5819073087417574452  0.3470049529819642653
0.7592843365595037808  -0.5446681916993219019  0.3561233735749240181
0.74567401945863232  -0.5366282876406707203  0.3949687805488539816
0.6945234516337617237  -0.5537025050475963273  0.4594025588029983509
0.7093821907357538148  -0.5640524452748242323  0.4226366600833791898
0.7307527956184436402  -0.5276479801918776413  0.433114258245166861
0.7145474724244151865  -0.5177434557167361895  0.4704929581984958475
0.7333093510831188988  -0.4807584609832962208  0.4807584609832961653
0.7507658030488287837  -0.490174415067293423  0.4428089337241108425
0.7693753731314735278  -0.4516976506573870953  0.4516976506573870398
0.7507658030488287837  -0.4428089337241108425  0.4901744150672933675
0.7668465598610247902  -0.4986945989584871675  0.4040421396326692172
0.7815215043133315609  -0.5063030209235260815  0.3645289965140479649
0.8021717102843560765  -0.4668885912202070942  0.372203695048667349
0.7865219924640728388  -0.4597295447441278049  0.4123492464643315203
0.8046481276598504984  -0.4198460376456452647  0.4198460376456452647
0.8211878386102303695  -0.4265170387958680531  0.3791223408551152585
0.8385304181706890736  -0.3852705139265718004  0.3852705139265718559
0.8211878386102303695  -0.3791223408551151475  0.4265170387958680531
0.7668465598610247902  -0.4040421396326692727  0.498694598958487223
0.7865219924640728388  -0.4123492464643314648  0.4597295447441277494
0.8021717102843560765  -0.3722036950486674045  0.4668885912202070942
0.7815215043133315609  -0.3645289965140479649  0.5063030209235260815
0.6507359482376773308  -0.4347504377440803425  0.6225229172910354825
0.6732398470495217779  -0.4474810429835583969  0.5886500017116141903
0.6866759152914473363  -0.4113649769473043394  0.5993788810925830823
0.662678176089620985  -0.3993212524493600646  0.6335614984173263409
0.6945234516337618347  -0.4594025588029983509  0.5537025050475964383
0.7145474724244151865  -0.4704929581984959586  0.5177434557167363005
0.7307527956184435292  -0.4331142582451669165  0.5276479801918777524
0.7093821907357538148  -0.4226366600833793008  0.5640524452748243434
0.7230515932291592396  -0.3851499597887009241  0.5734595905585121445
0.745674019458632209  -0.3949687805488540371  0.5366282876406708313
0.7592843365595037808  -0.3561233735749240736  0.5446681916993219019
0.7355076115438301532  -0.3470049529819642653  0.5819073087417573342
0.6736132730417577763  -0.3632797095086484074  0.6436404361452768841
0.6990151643259773229  -0.3745797881293425058  0.6091533323944833267
0.7102368354501138459  -0.3371838552392056876  0.6179568636529854109
0.6835241206607040043  -0.3266803785348136868  0.65274398255009769
0.6923887035013048807  -0.6608925901985173157  0.2895148830103158044
0.7001874962145856474  -0.668068312313725432  0.2518376465642900297
0.7291920204509825254  -0.632900574899945112  0.2602227115413505709
0.7203072915215287253  -0.6258820991433494685  0.2990468253515385921
0.7069119329566437848  -0.6742237823815134812  0.2137704617449920075
0.7125513272454208069  -0.6793492432634553602  0.1753716388648968727
0.7433678054782800748  -0.6438331234384484514  0.1813372960587463223
0.7368833087828254857  -0.6388877275874610406  0.2209648405864728105
0.7652446614629114796  -0.6021325415816747295  0.2276774263533977993
0.7725189340731020149  -0.6068637286921620966  0.1868981307996528674
0.7999382096871746617  -0.5685234900424794846  0.1920414068694468179
0.7919316089234978984  -0.564037629739487345  0.2338928793822099006
0.7467204006694470042  -0.5895527664027711001  0.3079548324850579499
0.7566398899172281922  -0.5963586678908080474  0.2680530100885750722
0.7824701729981556886  -0.558519699484309351  0.2753110489177522657
0.7715717182690468023  -0.5519801341340606626  0.3162198840817811996
0.7170909629335032731  -0.6834441402766432416  0.1366918358960083624
0.7205228061157196162  -0.6865012286119849261  0.097790331737674277
0.7526232218994748369  -0.6506344916316503246  0.1011585100566312484
0.748618312941303321  -0.6477517034825491793  0.141380168921856425
0.722846480214722531  -0.6885078424529610386  0.05873599341081419539
0.724058169849272848  -0.6894606897811360602  0.01958887237800485681
0.7569135597818986705  -0.6532006885719199296  0.02026631361308391804
0.7553899943649590165  -0.6524519608455455755  0.06076508209580504943
0.7861599546263661198  -0.6148391677836458902  0.06265240219643418429
0.7879618188630066467  -0.6153694084869867353  0.0208964856489867179
0.8171274582805175823  -0.5760567848072933872  0.02147783977742762085
0.8150813495595469194  -0.5757568007457626313  0.06439332259785914003
0.7784366463703773498  -0.6105688693191332339  0.1457465039237485493
0.7829828577147796009  -0.6132379132363083851  0.104293366492673123
0.8115287736462831747  -0.574397012761862058  0.1071873186268272327
0.8064765838090678374  -0.5719801303715638108  0.1497806737459293214
0.8327376835762964058  -0.5319678794691283796  0.1534865647706762648
0.8382375868123358442  -0.5341263076328094384  0.1098491490616704952
0.8630338565172748222  -0.492511731901502825  0.1122709064909612753
0.8571436194221515592  -0.4906139443391122068  0.1568527121343852304
0.8421104963053444026  -0.5352517248297505859  0.06599623534068804753
0.8443486183890147601  -0.5353417914426406021  0.02201310881148210025
0.8695567366599531445  -0.493320172294016257  0.02250087414068768429
0.867174556048507128  -0.4934145246130880458  0.06745662490011643253
0.890180667436090256  -0.4503895779089356899  0.06875759910037278211
0.8926797025649984008  -0.4501076703774097854  0.02293542447584123734
0.913660953257247721  -0.405807887650368293  0.02331567742535976817
0.9110720205266520377  -0.4062786420429090328  0.06989591142015122438
0.8795663265339892511  -0.4481169894900495221  0.1598569390357468811
0.8858062637805562689  -0.4497254517389130957  0.1144302455881402725
0.9064992284496558028  -0.4058674394753466474  0.1163218397116576458
0.8999528472352680275  -0.4045753068346062409  0.1624921347414029771
0.7948158343956889249  -0.5132267992532619783  0.3238302671495312812
0.8066490862912271131  -0.5194171711629920196  0.28199832248891743
0.8291163746600804796  -0.4791302443382090548  0.2880976331574650606
0.8164009721003451236  -0.4733723741034774335  0.3307688742751483946
0.8169263627420919605  -0.5246090460933499067  0.2396177510411142686
0.8256272625850785696  -0.5287920771213990845  0.1967703291909269625
0.8495125137887854505  -0.4877490417828300728  0.2010705377627207691
0.8401613726676382399  -0.4839259090083867787  0.2448358275817416885
0.8615352349265010812  -0.442154174145826584  0.2495129761466539919
0.87146904517322199  -0.4455908149923545336  0.2049159068967612018
0.8914459685080639018  -0.4024130342151386319  0.2082974678782378852
0.8809985549786482073  -0.3993859928405920079  0.2536382755978844328
0.8362718632962043985  -0.4325163202146873886  0.3370148415233970574
0.8497942131412279387  -0.4377927533800156645  0.2935767368161621427
0.8686360011565926742  -0.3954935064921266119  0.2984231623337007533
0.854385827515352303  -0.3907443205228586236  0.3425547163885442892
0.8709376083515498745  -0.3474677555967476406  0.3474677555967476961
0.8858034699137451451  -0.3517081606695145468  0.3027434266953386022
0.9011749896712394348  -0.3064992968923758165  0.306499296892375761
0.8858034699137451451  -0.3027434266953385467  0.3517081606695145468
0.8986861193673899573  -0.3551631417632767351  0.2573371360476760517
0.9095561043602616857  -0.357824754429165226  0.2113507467190320899
0.9256885459962627127  -0.3119009848319206912  0.2140525437181322876
0.9144805893968647181  -0.3095542818053759748  0.2605789673636781933
0.9281368943692921425  -0.2632127516957770141  0.2632127516957769586
0.9396218420518823722  -0.2652319907557896816  0.216247046265950732
0.9513222356789236001  -0.2179288919611788444  0.2179288919611788722
0.9396218420518823722  -0.216247046265950732  0.2652319907557896261
0.8986861193673899573  -0.2573371360476760517  0.3551631417632766796
0.9144805893968647181  -0.2605789673636782489  0.3095542818053759748
0.9256885459962627127  -0.2140525437181323432  0.3119009848319207467
[...]
POINT_DATA 6144
SCALARS area double 1
LOOKUP_TABLE default
0.001341883659694404016
0.001400733137778804567
0.001458649447783339718
0.001400733137778805218
0.001457612116121090014
0.001511976568004530508
0.00156853873813683352
0.001515071438468535347
0.001570604910253570186
0.001622747992817449468
0.001674051246057576192
0.001622747992817453154
0.001457612116121090231
0.001515071438468533612
0.001568538738136830701
0.001511976568004529207
0.001564895776657142853
0.001613711121271002233
0.001671146725717140551
0.001623169009785833212
0.001660216148223720573
0.001703835446055112883
0.001760234464562404014
0.001717363327548484392
0.001771865293915615659
0.001813480438362335056
0.001862913024871486493
0.001821964673114554248
0.00167867478694130488
0.001726400643492486406
0.001777719586057591216
0.001730761199700982245
0.001786808177700248803
0.00183151441967901508
0.001875536173587569796
0.001831514419679018332
0.001873006260551187806
0.001910678163893178832
0.001954020632556551298
0.001916925677217687189
0.001957739123700196794
0.001993781274745281239
0.002029348810559982678
0.001993781274745280805
0.001873006260551187373
0.001916925677217688924
0.001954020632556549997
0.001910678163893179699
0.001564895776657142419
0.001623169009785832995
0.001671146725717142937
0.001613711121270999848
0.001678674786941298808
0.001730761199700986148
0.001777719586057600974
0.001726400643492479901
0.001771865293915613707
0.001821964673114554248
0.001862913024871487794
0.001813480438362337875
0.001660216148223717537
0.001717363327548483741
0.001760234464562407701
0.001703835446055117437
0.001748029041265030574
0.001781666154046304251
0.001847800235360189808
0.001814798999396032356
0.001812590364957888554
0.001840370564818671895
0.00190587226821896296
0.001878557413706672535
0.001941492041762181127
0.001967602744918894517
0.002024649531436876169
0.001998942652324599799
0.001878088090887142627
0.00191125318104005135
0.001969576894827176992
0.001936990726456778826
0.001865317139364457057
0.001885607358002510748
0.00195224003575653407
0.001932230139749929569
0.001902944896139585878
0.001917022141819912148
0.00198368040050788709
0.001969679927601460274
0.002032977054483918293
0.002046098771927635195
0.002103292436837211465
0.002090189740720625137
0.001995091379312636908
0.002015683911807504818
0.002073295388603482465
0.002052922172288392747
0.00211711472364754013
0.002135006370963491752
0.002182755012716254463
0.002165016831821259518
0.002148692731293730656
0.00215789582607319461
0.002205867923412195043
0.002196632027635090842
0.002240359946343205549
0.002248948393799405157
0.002286326408826662611
0.002277658734421491617
0.002208185513626462638
0.00222651174931980415
0.002264060711559599901
0.002245813775501822197
0.001993407004670886065
0.002029312997020433357
0.002078769039153276817
0.002043359782745430338
0.002061376262618393358
0.002089046962396201145
0.002138248415659684334
0.002110906555874518357
0.00215669440570252606
0.002183059858250548969
0.002222679733082945884
0.002196547214744863034
0.002089250188709328507
0.002124915437323161849
0.002165562875684801797
0.002130282872434191999
0.002233448779820153621
0.002262839828431063328
0.002291934946740607597
0.002262839828431063328
0.002287246062242198532
0.002306183782946795782
0.00233529588423443072
0.002316533152181635309
0.002340947258250422255
0.0023591484304087652
0.002377255312062281391
0.002359148430408766935
0.002287246062242202435
0.002316533152181634442
0.002335295884234428986
0.002306183782946797951
0.002320008155300363421
0.002327452119732136785
0.002357642205272443645
0.00235024474780266444
0.002329551628976908768
0.002326258661899210673
0.002356602656696201066
0.002359806324156335337
0.002385035551805809138
0.002381458593605915216
0.002400307873394118708
0.002403808297133185577
0.002375019407158800513
0.00238284425839790405
0.002401627522769003362
0.002393814112863172118
0.002410361699533119552
0.002417446121294489821
0.002424554607484114867
0.002417446121294490255
0.002418664096696138566
0.002413987754025857194
0.002421220568142584163
0.002425838628766465582
0.002427167002717041042
0.002422571481137576928
0.00241801228015610381
0.002422571481137576928
0.002418664096696138566
0.002425838628766465582
0.002421220568142584163
0.002413987754025857628
0.002320008155300362987
0.002350244747802665742
0.002357642205272444513
0.002327452119732134617
0.002375019407158800947
0.002393814112863173419
0.002401627522769003362
0.002382844258397904483
0.002385035551805810873
0.002403808297133185577
0.002400307873394120009
0.00238145859360591565
0.002329551628976907467
0.002359806324156338373
0.002356602656696201066
0.002326258661899209372
0.001748029041265024503
0.001814798999396032356
0.001847800235360195012
0.001781666154046302733
0.00187808809088713894
0.001936990726456777742
0.001969576894827176558
0.001911253181040044845
0.001941492041762174839
0.001998942652324601534
0.002024649531436870965
0.001967602744918889746
0.001812590364957884868
0.001878557413706672318
0.001905872268218963177
0.001840370564818670377
0.001993407004670885198
0.002043359782745429037
0.00207876903915327595
0.002029312997020435091
0.002089250188709330675
0.002130282872434192433
0.002165562875684799628
0.00212491543732315968
0.002156694405702523458
0.002196547214744865202
0.002222679733082945884
0.002183059858250550704
0.002061376262618397695
0.002110906555874518357
0.002138248415659683467
0.002089046962396203314
0.002117114723647542298
0.00216501683182126212
0.002182755012716256198
0.002135006370963494354
0.002208185513626463939
0.002245813775501821763
0.002264060711559599901
0.002226511749319806752
0.002240359946343205115
0.002277658734421493785
0.002286326408826664346
0.002248948393799403856
0.002148692731293730656
0.00219663202763508824
0.002205867923412192441
0.002157895826073195477
0.001865317139364454238
0.001932230139749924799
0.001952240035756531902
0.001885607358002511181
0.00199509137931263604
0.002052922172288397518
0.002073295388603483766
0.002015683911807503084
0.002032977054483918727
0.002090189740720626004
0.002103292436837211465
0.002046098771927636062
0.00190294489613958848
0.001969679927601460708
0.00198368040050788709
0.001917022141819910413
0.001917022141819912581
0.001902944896139589131
0.001969679927601460274
0.001983680400507888825
0.00188560735800250988
0.001865317139364456841
0.001932230139749928268
0.001952240035756534287
0.002015683911807506987
0.001995091379312639943
0.002052922172288397518
0.002073295388603483766
0.002046098771927635195
0.002032977054483918293
0.002090189740720630775
0.002103292436837213633
0.001840370564818672762
0.001812590364957886602
0.001878557413706669283
0.001905872268218963828
0.001781666154046305335
0.001748029041265030357
0.001814798999396031488
0.001847800235360192627
0.001911253181040049615
0.001878088090887143494
0.001936990726456777525
0.00196957689482717439
0.001967602744918895818
0.001941492041762181344
0.001998942652324600666
0.002024649531436873134
0.002089046962396199844
0.002061376262618394226
0.002110906555874518357
0.002138248415659686503
0.002029312997020434658
0.001993407004670883463
0.002043359782745432507
0.002078769039153276817
0.002124915437323158813
0.002089250188709329374
0.002130282872434193734
0.002165562875684800062
0.002183059858250549403
0.002156694405702525193
0.002196547214744861733
0.002222679733082943716
0.002157895826073192875
0.002148692731293725018
0.002196632027635087372
0.002205867923412192441
0.002135006370963487415
0.002117114723647538829
0.002165016831821261686
0.002182755012716253596
0.002226511749319803283
0.002208185513626462638
0.002245813775501819161
0.002264060711559600335
0.002248948393799403422
0.002240359946343204248
0.002277658734421492918
0.002286326408826663912
0.00170383544605511375
0.001660216148223722524
0.001717363327548484175
0.001760234464562407484
0.001613711121271002883
0.001564895776657141118
0.001623169009785837549
0.001671146725717142069
0.001726400643492483804
0.001678674786941303579
0.001730761199700982678
0.001777719586057598588
0.001813480438362339176
0.00177186529391561284
0.001821964673114550345
0.001862913024871489963
0.001511976568004532243
0.001457612116121090014
0.001515071438468535998
0.001568538738136834821
0.001400733137778804567
0.001341883659694404016
0.001400733137778805218
0.001458649447783339718
0.001515071438468535564
0.001457612116121090231
0.001511976568004530942
0.001568538738136830485
0.001622747992817449685
0.00157060491025357127
0.001622747992817449685
0.001674051246057575108
0.001730761199700983979
0.001678674786941302928
0.001726400643492485973
0.001777719586057598155
0.001623169009785835381
0.001564895776657142419
0.001613711121271001149
0.001671146725717144671
0.00171736332754848656
0.001660216148223720139
0.001703835446055115268
0.001760234464562408351
0.001821964673114549477
0.001771865293915613057
0.001813480438362338309
0.001862913024871484975
0.001910678163893179916
0.001873006260551185204
0.001916925677217683069
0.001954020632556545227
0.001831514419679017031
0.001786808177700246417
0.001831514419679017682
0.001875536173587577385
0.00191692567721768372
0.001873006260551190192
0.001910678163893178181
0.001954020632556544793
0.001993781274745278637
0.001957739123700199396
0.001993781274745276468
0.002029348810559983111
0.002130282872434195902
0.002089250188709327639
0.002124915437323160981
0.002165562875684801797
0.002043359782745432073
0.001993407004670883463
0.002029312997020435959
0.002078769039153276384
0.002110906555874518791
0.002061376262618395527
0.002089046962396200711
0.002138248415659685202
0.002196547214744863467
0.002156694405702524325
0.002183059858250548969
0.00222267973308294545
0.001936990726456778826
0.00187808809088713894
0.001911253181040047881
0.001969576894827176992
0.001814798999396032356
0.00174802904126502472
0.001781666154046302733
0.001847800235360195012
0.001878557413706671668
0.00181259036495788812
0.001840370564818671244
0.001905872268218964261
0.001998942652324600232
0.001941492041762183079
0.001967602744918895384
0.002024649531436874435
0.002052922172288395783
0.001995091379312638642
0.002015683911807506987
0.002073295388603483332
0.001932230139749931521
0.001865317139364454238
0.001885607358002509663
0.001952240035756531902
0.001969679927601460274
0.00190294489613958848
0.001917022141819914099
0.001983680400507888825
0.002090189740720630341
0.002032977054483917426
0.002046098771927636062
0.002103292436837210597
0.002245813775501818727
0.002208185513626463939
0.00222651174931980415
0.002264060711559598166
0.002165016831821261253
0.002117114723647538829
0.002135006370963486982
0.002182755012716257065
0.002196632027635088674
0.002148692731293725452
0.002157895826073192875
0.002205867923412192875
0.002277658734421491617
0.002240359946343204248
0.002248948393799402555
0.002286326408826664346
0.002326258661899210239
0.002329551628976909636
0.002359806324156336205
0.002356602656696201066
0.002327452119732137219
0.002320008155300363854
0.002350244747802664874
0.002357642205272442778
0.002382844258397903182
0.002375019407158801381
0.002393814112863172985
0.002401627522769001627
0.002381458593605914782
0.002385035551805809138
0.00240380829713318471
0.002400307873394118274
0.002306183782946797517
0.0022872460622422007
0.002316533152181635743
0.00233529588423443072
0.002262839828431059859
0.002233448779820150151
0.002262839828431060293
0.002291934946740608464
0.002316533152181634875
0.002287246062242200267
0.002306183782946797951
0.002335295884234431154
0.002359148430408764766
0.002340947258250422689
0.0023591484304087652
0.002377255312062281391
0.002393814112863173419
0.002375019407158800513
0.002382844258397903182
0.002401627522769002494
0.002350244747802665742
0.002320008155300363854
0.002327452119732136785
0.002357642205272442344
0.002359806324156336205
0.0023295516289769066
0.002326258661899210673
0.002356602656696202367
0.002403808297133184276
0.002385035551805808705
0.002381458593605915216
0.002400307873394119575
0.002413987754025858929
0.002418664096696139
0.002425838628766466016
0.002421220568142583296
0.00241744612129449199
0.002410361699533118685
0.002417446121294490255
0.0024245546074841153
0.002425838628766465149
0.002418664096696139434
0.002413987754025858929
0.002421220568142583296
0.002422571481137577795
0.002427167002717041042
0.00242257148113757606
0.00241801228015610381
0.002418012280156104678
0.002422571481137576928
0.002427167002717041909
0.002422571481137576928
0.002421220568142584163
0.002413987754025857194
0.002418664096696138566
0.002425838628766466016
0.0024245546074841153
0.002417446121294489821
0.002410361699533119552
0.002417446121294490255
0.002421220568142584163
0.002425838628766465582
0.002418664096696138133
0.002413987754025858062
0.002400307873394118274
0.002381458593605916517
0.002385035551805810439
0.00240380829713318471
0.002356602656696201933
0.002326258661899210239
0.002329551628976907901
0.00235980632415633447
0.002357642205272443212
0.002327452119732136785
0.002320008155300363854
0.002350244747802663139
0.002401627522769003795
0.00238284425839790405
0.002375019407158800513
0.002393814112863172118
0.002377255312062283559
0.002359148430408766935
0.002340947258250421388
0.002359148430408767802
0.002335295884234429419
0.002306183782946795349
0.002287246062242198966
0.002316533152181633574
0.002291934946740604127
0.002262839828431062895
0.002233448779820151019
0.002262839828431062461
0.002335295884234424215
0.002316533152181632707
0.002287246062242201568
0.002306183782946797517
0.002400307873394118274
0.00240380829713318471
0.002385035551805810873
0.00238145859360591565
0.002401627522769002928
0.002393814112863172985
0.002375019407158802248
0.002382844258397903182
0.002357642205272441477
0.002350244747802664874
0.002320008155300365155
0.002327452119732137652
0.0023566026566962015
0.002359806324156338373
0.002329551628976907467
0.002326258661899209372
0.002286326408826664346
0.002248948393799403422
0.002240359946343205115
0.002277658734421493351
0.002205867923412195911
0.00215789582607319114
0.002148692731293725018
0.002196632027635090408
0.00218275501271625403
0.002135006370963487849
0.002117114723647538829
0.002165016831821261253
0.002264060711559600335
0.002226511749319802849
0.002208185513626461337
0.002245813775501819595
0.002103292436837210597
0.002046098771927636062
0.002032977054483916992
0.002090189740720629474
0.001983680400507888825
0.001917022141819913449
0.001902944896139587829
0.001969679927601462443
0.001952240035756531034
0.001885607358002510097
0.001865317139364456841
0.001932230139749931521
0.002073295388603482899
0.002015683911807505252
0.001995091379312638642
0.002052922172288396217
0.002024649531436877904
0.001967602744918891047
0.001941492041762183079
0.001998942652324602401
0.001905872268218965345
0.00184037056481867081
0.001812590364957887036
0.001878557413706671885
0.001847800235360193494
0.001781666154046302082
0.001748029041265024503
0.001814798999396031271
0.001969576894827175257
0.001911253181040051567
0.001878088090887139591
0.001936990726456774489
0.002222679733082942848
0.002183059858250552439
0.002156694405702524325
0.002196547214744860865
0.002138248415659686937
0.002089046962396200278
0.002061376262618397261
0.002110906555874517924
0.002078769039153275516
0.002029312997020435091
0.001993407004670885198
0.002043359782745430772
0.002165562875684800929
0.002124915437323159247
0.002089250188709326772
0.002130282872434192433
0.002029348810559983979
0.001993781274745283841
0.001957739123700194626
0.001993781274745281239
0.001954020632556549997
0.001910678163893178181
0.001873006260551187156
0.00191692567721768784
0.001875536173587572398
0.001831514419679017248
0.001786808177700245116
0.001831514419679014646
0.001954020632556551298
0.001916925677217689358
0.001873006260551186722
0.00191067816389317688
0.001862913024871485409
0.001813480438362338309
0.00177186529391561349
0.001821964673114551429
0.001760234464562408351
0.001703835446055115702
0.001660216148223720573
0.00171736332754848656
0.001671146725717144021
0.001613711121270997679
0.001564895776657142853
0.001623169009785832345
0.001777719586057597504
0.001726400643492482069
0.001678674786941297941
0.001730761199700982678
0.001674051246057576409
0.001622747992817448817
0.001570604910253564114
0.001622747992817452287
0.001568538738136835906
0.001511976568004530074
0.001457612116121088713
0.001515071438468533829
0.001458649447783343404
0.001400733137778805868
0.001341883659694404016
0.001400733137778808904
0.001568538738136833954
0.001515071438468537082
0.001457612116121090665
0.00151197656800452899
0.001862913024871482373
0.001821964673114552079
0.001771865293915619345
0.001813480438362339827
0.001777719586057594035
0.001730761199700984196
0.001678674786941305964
0.001726400643492486406
0.00167114672571714272
0.001623169009785833212
0.001564895776657141552
0.001613711121270999197
0.001760234464562407484
0.001717363327548483958
0.001660216148223719055
0.001703835446055114618
0.002286326408826664346
0.002277658734421493785
0.002240359946343205115
0.002248948393799403856
0.002264060711559599468
0.002245813775501821763
0.002208185513626463505
0.002226511749319805451
0.00218275501271625403
0.002165016831821260385
0.002117114723647540997
0.00213500637096349262
0.002205867923412195911
0.002196632027635090408
0.002148692731293730222
0.002157895826073193742
0.00222267973308294545
0.002196547214744860865
0.002156694405702520856
0.002183059858250550704
0.002165562875684800929
0.002130282872434192433
0.002089250188709331543
0.002124915437323160981
0.002078769039153278118
0.002043359782745430338
0.001993407004670884764
0.002029312997020432489
0.002138248415659683467
0.002110906555874518357
0.002061376262618392925
0.00208904696239619941
0.002024649531436871399
0.001998942652324598931
0.001941492041762179826
0.001967602744918895818
0.001969576894827177425
0.001936990726456777525
0.001878088090887142843
0.001911253181040052651
0.001847800235360192627
0.001814798999396031488
0.001748029041265030357
0.001781666154046304467
0.001905872268218964261
0.00187855741370667015
0.001812590364957887036
0.001840370564818672979
0.002103292436837210597
0.002090189740720626004
0.002032977054483918727
0.002046098771927636062
0.00207329538860348073
0.002052922172288394048
0.001995091379312638642
0.002015683911807505252
0.00195224003575653407
0.001932230139749927401
0.001865317139364457057
0.001885607358002510748
0.00198368040050788709
0.001969679927601460274
0.001902944896139590215
0.001917022141819911931
0.001917022141819914099
0.001983680400507886656
0.001969679927601460274
0.001902944896139588046
0.002046098771927635195
0.002103292436837208429
0.002090189740720625137
0.002032977054483917426
0.002015683911807504818
0.002073295388603481164
0.002052922172288394048
0.001995091379312638209
0.00188560735800250576
0.001952240035756531468
0.001932230139749929135
0.001865317139364453371
0.002157895826073195043
0.002205867923412194176
0.00219663202763508824
0.002148692731293729789
0.00224894839379940429
0.002286326408826663912
0.002277658734421496821
0.00224035994634320685
0.002226511749319803283
0.002264060711559602937
0.002245813775501821329
0.00220818551362646524
0.002135006370963490885
0.002182755012716255764
0.002165016831821259952
0.002117114723647538395
0.002089046962396199844
0.002138248415659686069
0.002110906555874519225
0.002061376262618388154
0.002183059858250552439
0.002222679733082945017
0.002196547214744867804
0.002156694405702528662
0.002124915437323158379
0.002165562875684802231
0.002130282872434192433
0.002089250188709328507
0.00202931299702042902
0.002078769039153275516
0.002043359782745429905
0.00199340700467088433
0.001840370564818672328
0.00190587226821896296
0.001878557413706672535
0.001812590364957890072
0.001967602744918895818
0.002024649531436873567
0.001998942652324601967
0.001941492041762183296
0.001911253181040049832
0.001969576894827175257
0.001936990726456777308
0.001878088090887143277
0.001781666154046302082
0.001847800235360195446
0.001814798999396031488
0.001748029041265024936
0.002326258661899210673
0.002356602656696201933