# vtk DataFile Version 2.0 
spherical quadrilaterals
ASCII
DATASET POLYDATA
POINTS 1536 double 
0.6097595591908385737  -0.5604432531378151783  0.5604432531378151783
0.6411729703866817509  -0.5876653761782659746  0.4935044353263468575
0.6791810421626738314  -0.5189957186561485747  0.5189957186561484637
0.6411729703866817509  -0.4935044353263468575  0.5876653761782659746
0.6686172415928206547  -0.611289380443441166  0.4234102946338000883
0.6919047616999010053  -0.6311548255420519338  0.3505872030351153135
0.7412236859204989203  -0.5594263728316257733  0.3709846099380409989
0.712619347322722807  -0.5410285810885197  0.4466113973766004386
0.7514049328539224026  -0.4665783036548059037  0.4665783036548058482
0.7846454490066431253  -0.4831385362257561433  0.3884696566873622747
0.8218008703419360517  -0.4028916290426224345  0.40289162904262249
0.7846454490066431253  -0.3884696566873622747  0.4831385362257561433
0.6686172415928206547  -0.4234102946338001439  0.611289380443441166
0.712619347322722696  -0.4466113973766004941  0.541028581088519811
0.7412236859204989203  -0.37098460993804111  0.5594263728316257733
0.6919047616999010053  -0.3505872030351154245  0.6311548255420519338
0.7108476590279254603  -0.6472362460243764604  0.2752832132310120694
0.7252732549048790389  -0.6593878525117797818  0.1979554638790902987
0.7828005313102590623  -0.5856836704793231263  0.2102331237323076529
0.7647239278078060698  -0.5743841453447958711  0.2920276833019941343
0.7350714102932031091  -0.667408650990031993  0.1193135128693597891
0.7401686536412187545  -0.6712388721011212089  0.03985901086781041408
0.8020011282478778369  -0.5958173817993390742  0.0423773268967198441
0.7952641370984804281  -0.592851013693975748  0.1268173008979242844
0.8482456811792923324  -0.5125821948106417114  0.1331869285019516291
0.8562655390608272521  -0.5146140647360126774  0.04451618798538269778
0.9024097207657104658  -0.4283893106033144771  0.04625250726576246585
0.8934560800157380633  -0.4273109937930900659  0.1383529821379820279
0.812162020900291215  -0.4965420068680765908  0.3063313356850358993
0.8334963489601631137  -0.5065368704932223798  0.2206903602358074867
0.8768427949194494975  -0.4226182656859289177  0.2292171775990310967
0.8527269666585941543  -0.4143584357354698211  0.3180625835713584704
0.8864320734812166647  -0.3272905277454503103  0.3272905277454503103
0.9126305335552535869  -0.3338042597458042438  0.235966576866743688
0.9402303567693953701  -0.2407975043571835005  0.2407975043571835005
0.9126305335552535869  -0.2359665768667436603  0.3338042597458041327
0.9305488064173479401  -0.337318692894554073  0.1424605850723583145
0.9400124459265095656  -0.3377985514648376153  0.04763129361583855192
0.9686330788554179394  -0.2436899970778069191  0.04863274484636911921
0.9589646337740976856  -0.2433819719221670119  0.1454374329867939297
0.9781471129831367239  -0.1470173890442126874  0.1470173890442126874
0.9878868421139821443  -0.1471817590021328448  0.04916418406830591614
0.997574501049479867  -0.04921948219903006516  0.04921948219903006516
0.9878868421139821443  -0.04916418406830591614  0.1471817590021328448
0.9305488064173479401  -0.1424605850723583145  0.3373186928945541285
0.9589646337740976856  -0.1454374329867939297  0.2433819719221670119
0.9686330788554179394  -0.04863274484636911921  0.2436899970778068913
0.9400124459265096766  -0.04763129361583853805  0.3377985514648376708
0.7108476590279254603  -0.2752832132310121249  0.6472362460243765714
0.7647239278078060698  -0.2920276833019941898  0.5743841453447959822
0.7828005313102590623  -0.2102331237323076529  0.5856836704793231263
0.7252732549048789279  -0.1979554638790903265  0.6593878525117797818
0.8121620209002911039  -0.3063313356850359548  0.4965420068680765908
0.8527269666585941543  -0.3180625835713584149  0.4143584357354697656
0.8768427949194494975  -0.2292171775990311522  0.4226182656859289732
0.8334963489601630027  -0.2206903602358074867  0.5065368704932223798
0.8482456811792923324  -0.1331869285019516569  0.5125821948106417114
0.8934560800157380633  -0.1383529821379820279  0.4273109937930900104
0.9024097207657104658  -0.04625250726576247279  0.4283893106033145326
0.8562655390608272521  -0.04451618798538269778  0.5146140647360125664
0.7350714102932031091  -0.1193135128693597891  0.667408650990031993
0.7952641370984804281  -0.1268173008979243122  0.592851013693975859
0.8020011282478778369  -0.04237732689671985103  0.5958173817993390742
0.7401686536412187545  -0.03985901086781041408  0.6712388721011212089
0.7401686536412187545  -0.6712388721011212089  -0.03985901086781041408
0.7350714102932031091  -0.667408650990031993  -0.1193135128693597891
0.7952641370984805391  -0.592851013693975748  -0.1268173008979242844
0.8020011282478778369  -0.5958173817993390742  -0.0423773268967198441
0.7252732549048789279  -0.6593878525117796707  -0.1979554638790903265
0.7108476590279254603  -0.6472362460243764604  -0.2752832132310120694
0.7647239278078061808  -0.5743841453447958711  -0.2920276833019941898
0.7828005313102591733  -0.5856836704793230153  -0.2102331237323076529
0.8334963489601631137  -0.5065368704932223798  -0.2206903602358074867
0.812162020900291215  -0.4965420068680765908  -0.3063313356850359548
0.8527269666585942653  -0.4143584357354698766  -0.3180625835713584704
0.8768427949194494975  -0.4226182656859289177  -0.2292171775990311244
0.8562655390608272521  -0.5146140647360125664  -0.04451618798538269084
0.8482456811792923324  -0.5125821948106417114  -0.1331869285019516291
0.8934560800157380633  -0.4273109937930900659  -0.1383529821379820279
0.9024097207657104658  -0.4283893106033145326  -0.04625250726576246585
0.6919047616999010053  -0.6311548255420519338  -0.350587203035115369
0.6686172415928206547  -0.611289380443441166  -0.4234102946338001439
0.712619347322722807  -0.5410285810885197  -0.4466113973766004386
0.7412236859204989203  -0.5594263728316257733  -0.37098460993804111
0.6411729703866817509  -0.5876653761782659746  -0.493504435326346802
0.6097595591908385737  -0.5604432531378151783  -0.5604432531378151783
0.6411729703866817509  -0.493504435326346802  -0.5876653761782659746
0.6791810421626739425  -0.5189957186561485747  -0.5189957186561485747
0.712619347322722807  -0.4466113973766004941  -0.5410285810885197
0.6686172415928206547  -0.4234102946338001439  -0.611289380443441166
0.6919047616999010053  -0.350587203035115369  -0.6311548255420519338
0.7412236859204990314  -0.37098460993804111  -0.5594263728316256623
0.7846454490066432363  -0.4831385362257560878  -0.3884696566873622747
0.7514049328539224026  -0.4665783036548058482  -0.4665783036548057927
0.7846454490066432363  -0.3884696566873622747  -0.4831385362257560323
0.8218008703419361627  -0.4028916290426224345  -0.4028916290426224345
0.8527269666585941543  -0.3180625835713584704  -0.4143584357354698211
0.812162020900291215  -0.3063313356850359548  -0.4965420068680765908
0.8334963489601631137  -0.2206903602358074867  -0.5065368704932223798
0.8768427949194494975  -0.2292171775990310967  -0.4226182656859289177
0.7647239278078060698  -0.2920276833019941898  -0.5743841453447959822
0.7108476590279254603  -0.2752832132310121249  -0.6472362460243765714
0.7252732549048789279  -0.1979554638790903265  -0.6593878525117796707
0.7828005313102591733  -0.2102331237323076529  -0.5856836704793230153
0.7952641370984805391  -0.1268173008979243122  -0.592851013693975748
0.7350714102932031091  -0.1193135128693597752  -0.667408650990031993
0.7401686536412187545  -0.03985901086781041408  -0.6712388721011212089
0.802001128247877948  -0.0423773268967198441  -0.5958173817993391852
0.8934560800157380633  -0.1383529821379820279  -0.4273109937930900104
0.8482456811792923324  -0.1331869285019516291  -0.5125821948106417114
0.8562655390608272521  -0.04451618798538269084  -0.5146140647360125664
0.9024097207657104658  -0.04625250726576246585  -0.4283893106033145326
0.9400124459265096766  -0.3377985514648376708  -0.04763129361583853805
0.9305488064173479401  -0.337318692894554073  -0.1424605850723582867
0.9589646337740976856  -0.2433819719221669842  -0.1454374329867939297
0.9686330788554179394  -0.2436899970778069191  -0.04863274484636911921
0.9126305335552535869  -0.3338042597458041882  -0.2359665768667436603
0.8864320734812166647  -0.3272905277454503103  -0.3272905277454503103
0.9126305335552535869  -0.235966576866743688  -0.3338042597458041882
0.9402303567693953701  -0.2407975043571835005  -0.2407975043571835005
0.9589646337740976856  -0.1454374329867939297  -0.2433819719221670119
0.9305488064173479401  -0.1424605850723582867  -0.337318692894554073
0.9400124459265095656  -0.04763129361583855192  -0.3377985514648376708
0.9686330788554179394  -0.04863274484636911921  -0.2436899970778069191
0.9878868421139821443  -0.1471817590021328448  -0.04916418406830591614
0.9781471129831367239  -0.1470173890442126874  -0.1470173890442127151
0.9878868421139821443  -0.04916418406830591614  -0.1471817590021328448
0.997574501049479867  -0.04921948219903006516  -0.04921948219903006516
0.997574501049479867  0.0492194821990300721  -0.0492194821990300721
0.9878868421139821443  0.04916418406830591614  -0.1471817590021328448
0.9781471129831367239  0.1470173890442126874  -0.1470173890442126874
0.9878868421139821443  0.1471817590021328448  -0.04916418406830591614
0.9686330788554179394  0.04863274484636911921  -0.2436899970778068913
0.9400124459265095656  0.04763129361583855192  -0.3377985514648376153
0.9305488064173479401  0.1424605850723583145  -0.337318692894554073
0.9589646337740976856  0.1454374329867939297  -0.2433819719221670119
0.9402303567693952591  0.2407975043571835283  -0.2407975043571835283
0.9126305335552535869  0.235966576866743688  -0.3338042597458042438
0.8864320734812166647  0.3272905277454503659  -0.3272905277454503659
0.9126305335552535869  0.3338042597458041327  -0.2359665768667436603
0.9686330788554179394  0.2436899970778068913  -0.04863274484636911921
0.9589646337740976856  0.2433819719221670119  -0.145437432986793902
[...]
POINT_DATA 1536
SCALARS area double 1
LOOKUP_TABLE default
0.005601999383035358507
0.006053198860730992642
0.006490152141946051167
0.00605319886073099004
0.006472922633431118199
0.006841649386389725765
0.007270223430263986035
0.006913556216192369951
0.007325373190645851143
0.007654630734218605126
0.007974650483750737179
0.007654630734218605126
0.006472922633431121668
0.006913556216192368216
0.007270223430263989504
0.006841649386389729234
0.007192294430067552001
0.007437390611702196161
0.007932686970442545324
0.007695908893211145241
0.007635394672873425589
0.007773327366068854931
0.008272558003969381415
0.008136992852012017371
0.008599892939148551935
0.008709088508414217222
0.009053293483390770571
0.008944571750007689753
0.008144848823590032649
0.008399578196548797629
0.008758981211780890452
0.008510011374151476779
0.009051063383422887007
0.009245258881605059043
0.009436499431130241852
0.009245258881605059043
0.009355347228107621302
0.009372219271728658013
0.009570610315939028639
0.009553305301188879176
0.009669808549606216663
0.009679711047631047241
0.009690322245148298708
0.009679711047631048976
0.009355347228107612628
0.009553305301188882645
0.009570610315939032109
0.009372219271728659748
0.007192294430067554603
0.007695908893211146976
0.007932686970442538385
0.007437390611702182283
0.008144848823590023976
0.008510011374151478514
0.008758981211780895657
0.008399578196548797629
0.008599892939148551935
0.008944571750007689753
0.009053293483390765367
0.008709088508414212018
0.007635394672873419518
0.008136992852012020841
0.008272558003969390089
0.007773327366068854931
0.007773327366068855798
0.007635394672873426457
0.00813699285201202431
0.008272558003969388354
0.007437390611702194426
0.007192294430067557205
0.007695908893211144373
0.007932686970442545324
0.008399578196548797629
0.00814484882359002918
0.008510011374151478514
0.008758981211780897391
0.008709088508414205079
0.008599892939148548465
0.008944571750007682814
0.009053293483390756693
0.006841649386389734439
0.006472922633431120801
0.006913556216192368216
0.007270223430263989504
0.006053198860730992642
0.005601999383035358507
0.006053198860730990907
0.006490152141946052902
0.006913556216192370818
0.00647292263343112774
0.006841649386389737041
0.007270223430263988637
0.007654630734218592983
0.007325373190645858082
0.007654630734218594718
0.007974650483750733709
0.008510011374151476779
0.00814484882359002571
0.008399578196548799364
0.008758981211780892187
0.00769590889321114871
0.007192294430067554603
0.007437390611702194426
0.007932686970442547059
0.00813699285201202431
0.007635394672873421253
0.007773327366068854063
0.008272558003969393559
0.008944571750007684549
0.008599892939148551935
0.008709088508414206814
0.009053293483390758428
0.009372219271728658013
0.009355347228107617832
0.009553305301188877441
0.00957061031593902517
0.009245258881605059043
0.009051063383422881803
0.009245258881605060777
0.009436499431130233179
0.009553305301188873971
0.009355347228107612628
0.009372219271728656279
0.009570610315939026905
0.009679711047631052445
0.009669808549606214929
0.009679711047631052445
0.009690322245148298708
0.009690322245148298708
0.009679711047631048976
0.009669808549606216663
0.009679711047631048976
0.009570610315939028639
0.009372219271728658013
0.009355347228107614363
0.00955330530118888091
0.009436499431130238383
0.009245258881605060777
0.009051063383422874864
0.009245258881605059043
0.009570610315939032109
0.009553305301188882645
0.009355347228107614363
0.009372219271728658013
0.009053293483390765367
0.008709088508414208549
0.0085998929391485502
0.00894457175000768108
0.008272558003969393559
0.007773327366068857533
0.00763539467287342212
0.00813699285201202431
0.007932686970442560936
0.007437390611702195294
0.007192294430067549399
0.007695908893211141771
0.008758981211780893922
0.008399578196548801098
0.00814484882359002571
0.008510011374151475044
0.007974650483750733709
0.007654630734218602524
0.00732537319064585201
0.007654630734218605993
0.007270223430263983433
0.006841649386389732704
0.006472922633431116464
0.006913556216192362144
0.006490152141946041627
0.006053198860730987438
0.005601999383035360242
0.006053198860730992642
0.007270223430263991239
0.006913556216192374287
0.006472922633431122535
0.006841649386389730102
0.009053293483390763632
0.008944571750007684549
0.008599892939148551935
0.008709088508414217222
0.008758981211780892187
0.00851001137415147331
0.008144848823590027445
0.008399578196548794159
0.00793268697044253665
0.007695908893211143506
0.007192294430067557205
0.007437390611702194426
0.008272558003969390089
0.008136992852012015637
0.007635394672873425589
0.007773327366068857533
0.007773327366068851461
0.008272558003969391824
0.008136992852012026045
0.007635394672873420385
0.008709088508414210283
0.009053293483390763632
0.008944571750007691488
0.008599892939148548465
0.008399578196548794159
0.008758981211780900861
0.008510011374151481983
0.008144848823590015302
0.00743739061170218315
0.007932686970442547059
0.007695908893211142639
0.007192294430067552868
0.009372219271728658013
0.00957061031593902517
0.009553305301188873971
0.009355347228107614363
0.009679711047631052445
0.009690322245148298708
0.009679711047631052445
0.009669808549606214929
0.009553305301188875706
0.009570610315939026905
0.009372219271728658013
0.009355347228107612628
0.009245258881605059043
0.009436499431130234913
0.009245258881605059043
0.009051063383422885272
0.008510011374151481983
0.008758981211780900861
0.00839957819654879069
0.008144848823590018772
0.008944571750007691488
0.009053293483390765367
0.008709088508414210283
0.008599892939148548465
0.008136992852012017371
0.008272558003969393559
0.007773327366068857533
0.007635394672873425589
0.007695908893211147843
0.007932686970442545324
0.007437390611702196161
0.007192294430067554603
0.006841649386389730102
0.007270223430263990372
0.006913556216192365614
0.006472922633431121668
0.007654630734218601656
0.007974650483750737179
0.007654630734218607728
0.007325373190645852878
0.006913556216192378624
0.007270223430263985168
0.006841649386389723163
0.006472922633431122535
0.00605319886073099004
0.006490152141946047698
0.00605319886073099004
0.005601999383035358507
0.005601999383035358507
0.006053198860730992642
0.006490152141946051167
0.00605319886073099004
0.006472922633431118199
0.006841649386389725765
0.007270223430263986035
0.006913556216192369951
0.007325373190645851143
0.007654630734218605126
0.007974650483750737179
0.007654630734218605126
0.006472922633431121668
0.006913556216192368216
0.007270223430263989504
0.006841649386389729234
0.007192294430067552001
0.007437390611702196161
0.007932686970442545324
0.007695908893211145241
0.007635394672873425589
0.007773327366068854931
0.008272558003969381415
0.008136992852012017371
0.008599892939148551935
0.008709088508414217222
0.009053293483390770571
0.008944571750007689753
0.008144848823590032649
0.008399578196548797629
0.008758981211780890452
0.008510011374151476779
0.009051063383422887007
0.009245258881605059043
0.009436499431130241852
0.009245258881605059043
0.009355347228107621302
0.009372219271728658013
0.009570610315939028639
0.009553305301188879176
0.009669808549606216663
0.009679711047631047241
0.009690322245148298708
0.009679711047631048976
0.009355347228107612628
0.009553305301188882645
0.009570610315939032109
0.009372219271728659748
0.007192294430067554603
0.007695908893211146976
0.007932686970442538385
0.007437390611702182283
0.008144848823590023976
0.008510011374151478514
0.008758981211780895657
0.008399578196548797629
0.008599892939148551935
0.008944571750007689753
0.009053293483390765367
0.008709088508414212018
0.007635394672873419518
0.008136992852012020841
0.008272558003969390089
0.007773327366068854931
0.007773327366068855798
0.007635394672873426457
0.00813699285201202431
0.008272558003969388354
0.007437390611702194426
0.007192294430067557205
0.007695908893211144373
0.007932686970442545324
0.008399578196548797629
0.00814484882359002918
0.008510011374151478514
0.008758981211780897391
0.008709088508414205079
0.008599892939148548465
0.008944571750007682814
0.009053293483390756693
0.006841649386389734439
0.006472922633431120801
0.006913556216192368216
0.007270223430263989504
0.006053198860730992642
0.005601999383035358507
0.006053198860730990907
0.006490152141946052902
0.006913556216192370818
0.00647292263343112774
0.006841649386389737041
0.007270223430263988637
0.007654630734218592983
0.007325373190645858082
0.007654630734218594718
0.007974650483750733709
0.008510011374151476779
0.00814484882359002571
0.008399578196548799364
0.008758981211780892187
0.00769590889321114871
0.007192294430067554603
0.007437390611702194426
0.007932686970442547059
0.00813699285201202431
0.007635394672873421253
0.007773327366068854063
0.008272558003969393559
0.008944571750007684549
0.008599892939148551935
0.008709088508414206814
0.009053293483390758428
0.009372219271728658013
0.009355347228107617832
0.009553305301188877441
0.00957061031593902517
0.009245258881605059043
0.009051063383422881803
0.009245258881605060777
0.009436499431130233179
0.009553305301188873971
0.009355347228107612628
0.009372219271728656279
0.009570610315939026905
0.009679711047631052445
0.009669808549606214929
0.009679711047631052445
0.009690322245148298708
0.009690322245148298708
0.009679711047631048976
0.009669808549606216663
0.009679711047631048976
0.009570610315939028639
0.009372219271728658013
0.009355347228107614363
0.00955330530118888091
0.009436499431130238383
0.009245258881605060777
0.009051063383422874864
0.009245258881605059043
0.009570610315939032109
0.009553305301188882645
0.009355347228107614363
0.009372219271728658013
0.009053293483390765367
0.008709088508414208549
0.0085998929391485502
0.00894457175000768108
0.008272558003969393559
0.007773327366068857533
0.00763539467287342212
0.00813699285201202431
0.007932686970442560936
0.007437390611702195294
0.007192294430067549399
0.007695908893211141771
0.008758981211780893922
0.008399578196548801098
0.00814484882359002571
0.008510011374151475044
0.007974650483750733709
0.007654630734218602524
0.00732537319064585201
0.007654630734218605993
0.007270223430263983433
0.006841649386389732704
0.006472922633431116464
0.006913556216192362144
0.006490152141946041627
0.006053198860730987438
0.005601999383035360242
0.006053198860730992642
0.007270223430263991239
0.006913556216192374287
0.006472922633431122535
0.006841649386389730102
0.009053293483390763632
0.008944571750007684549
0.008599892939148551935
0.008709088508414217222
0.008758981211780892187
0.00851001137415147331
0.008144848823590027445
0.008399578196548794159
0.00793268697044253665
0.007695908893211143506
0.007192294430067557205
0.007437390611702194426
0.008272558003969390089
0.008136992852012015637
0.007635394672873425589
0.007773327366068857533
0.007773327366068851461
0.008272558003969391824
0.008136992852012026045
0.007635394672873420385
0.008709088508414210283
0.009053293483390763632
0.008944571750007691488
0.008599892939148548465
0.008399578196548794159
0.008758981211780900861
0.008510011374151481983
0.008144848823590015302
0.00743739061170218315
0.007932686970442547059
0.007695908893211142639
0.007192294430067552868
0.009372219271728658013
0.00957061031593902517
0.009553305301188873971
0.009355347228107614363
0.009679711047631052445
0.009690322245148298708
0.009679711047631052445
0.009669808549606214929
0.009553305301188875706
0.009570610315939026905
0.009372219271728658013
0.009355347228107612628
0.009245258881605059043
0.009436499431130234913
0.009245258881605059043
0.009051063383422885272
0.008510011374151481983
0.008758981211780900861
0.00839957819654879069
0.008144848823590018772
0.008944571750007691488
0.009053293483390765367
0.008709088508414210283
0.008599892939148548465
0.008136992852012017371
0.008272558003969393559
0.007773327366068857533
0.007635394672873425589
0.007695908893211147843
0.007932686970442545324
0.007437390611702196161
0.007192294430067554603
0.006841649386389730102
0.007270223430263990372
0.006913556216192365614
0.006472922633431121668
0.007654630734218601656
0.007974650483750737179
0.007654630734218607728
0.007325373190645852878
0.006913556216192378624
0.007270223430263985168
0.006841649386389723163
0.006472922633431122535
0.00605319886073099004
0.006490152141946047698
0.00605319886073099004
0.005601999383035358507
0.005601999383035358507
0.006053198860730992642
0.006490152141946051167
0.00605319886073099004
0.006472922633431118199
0.006841649386389725765
0.007270223430263986035
0.006913556216192369951
0.007325373190645851143
0.007654630734218605126
0.007974650483750737179
0.007654630734218605126
0.006472922633431121668
0.006913556216192368216
0.007270223430263989504
0.006841649386389729234
0.007192294430067552001
0.007437390611702196161
0.007932686970442545324
0.007695908893211145241
0.007635394672873425589
0.007773327366068854931
0.008272558003969381415
0.008136992852012017371
0.008599892939148551935
0.008709088508414217222
0.009053293483390770571
0.008944571750007689753
0.008144848823590032649
0.008399578196548797629
0.008758981211780890452
0.008510011374151476779
0.009051063383422887007
0.009245258881605059043
0.009436499431130241852
0.009245258881605059043
0.009355347228107621302
0.009372219271728658013
0.009570610315939028639
0.009553305301188879176
0.009669808549606216663
0.009679711047631047241
0.009690322245148298708
0.009679711047631048976
0.009355347228107612628
0.009553305301188882645
0.009570610315939032109
0.009372219271728659748
0.007192294430067554603
0.007695908893211146976
0.007932686970442538385
0.007437390611702182283
0.008144848823590023976
0.008510011374151478514
0.008758981211780895657
0.008399578196548797629
0.008599892939148551935
0.008944571750007689753
0.009053293483390765367
0.008709088508414212018
0.007635394672873419518
0.008136992852012020841
0.008272558003969390089
0.007773327366068854931
0.007773327366068855798
0.007635394672873426457
0.00813699285201202431
0.008272558003969388354
0.007437390611702194426
0.007192294430067557205
0.007695908893211144373
0.007932686970442545324
0.008399578196548797629
0.00814484882359002918
0.008510011374151478514
0.008758981211780897391
0.008709088508414205079
0.008599892939148548465
0.008944571750007682814
0.009053293483390756693
0.006841649386389734439
0.006472922633431120801
0.006913556216192368216
0.007270223430263989504
0.006053198860730992642
0.005601999383035358507
0.006053198860730990907
0.006490152141946052902
0.006913556216192370818
0.00647292263343112774
0.006841649386389737041
0.007270223430263988637
0.007654630734218592983
0.007325373190645858082
0.007654630734218594718
0.007974650483750733709
0.008510011374151476779
0.00814484882359002571
0.008399578196548799364
0.008758981211780892187
0.00769590889321114871
0.007192294430067554603
0.007437390611702194426
0.007932686970442547059
0.00813699285201202431
0.007635394672873421253
0.007773327366068854063
0.008272558003969393559
0.008944571750007684549
0.008599892939148551935
0.008709088508414206814
0.009053293483390758428
0.009372219271728658013
0.009355347228107617832
0.009553305301188877441
0.00957061031593902517
0.009245258881605059043
0.009051063383422881803
0.009245258881605060777
0.009436499431130233179
0.009553305301188873971
0.009355347228107612628
0.009372219271728656279
0.009570610315939026905
0.009679711047631052445
0.009669808549606214929
0.009679711047631052445
0.009690322245148298708
0.009690322245148298708
0.009679711047631048976
0.009669808549606216663
0.009679711047631048976
0.009570610315939028639
0.009372219271728658013
0.009355347228107614363
0.00955330530118888091
0.009436499431130238383
0.009245258881605060777
0.009051063383422874864
0.009245258881605059043
0.009570610315939032109
0.009553305301188882645
0.009355347228107614363
0.009372219271728658013
0.009053293483390765367
0.008709088508414208549
0.0085998929391485502
0.00894457175000768108
0.008272558003969393559
0.007773327366068857533
0.00763539467287342212
0.00813699285201202431
0.007932686970442560936
0.007437390611702195294
0.007192294430067549399
0.007695908893211141771
0.008758981211780893922
0.008399578196548801098
0.00814484882359002571
0.008510011374151475044
0.007974650483750733709
0.007654630734218602524
0.00732537319064585201
0.007654630734218605993
0.007270223430263983433
0.006841649386389732704
0.006472922633431116464
0.006913556216192362144
0.006490152141946041627
0.006053198860730987438
0.005601999383035360242
0.006053198860730992642
0.007270223430263991239
0.006913556216192374287
0.006472922633431122535
0.006841649386389730102
0.009053293483390763632
0.008944571750007684549
0.008599892939148551935
0.008709088508414217222
0.008758981211780892187
0.00851001137415147331
0.008144848823590027445
0.008399578196548794159
0.00793268697044253665
0.007695908893211143506
0.007192294430067557205
0.007437390611702194426
0.008272558003969390089
0.008136992852012015637
0.007635394672873425589
0.007773327366068857533
0.007773327366068851461
0.008272558003969391824
0.008136992852012026045
0.007635394672873420385
0.008709088508414210283
0.009053293483390763632
0.008944571750007691488
0.008599892939148548465
0.008399578196548794159
0.008758981211780900861
0.008510011374151481983
0.008144848823590015302
0.00743739061170218315
0.007932686970442547059
0.007695908893211142639
0.007192294430067552868
0.009372219271728658013
0.00957061031593902517
0.009553305301188873971
0.009355347228107614363
0.009679711047631052445
0.009690322245148298708
0.009679711047631052445
0.009669808549606214929
0.009553305301188875706
0.009570610315939026905
0.009372219271728658013
0.009355347228107612628
0.009245258881605059043
0.009436499431130234913
0.009245258881605059043
0.009051063383422885272
0.008510011374151481983
0.008758981211780900861
0.00839957819654879069
0.008144848823590018772
0.008944571750007691488
0.009053293483390765367
0.008709088508414210283
0.008599892939148548465
0.008136992852012017371
0.008272558003969393559
0.007773327366068857533
0.007635394672873425589
0.007695908893211147843
0.007932686970442545324
0.007437390611702196161
0.007192294430067554603
0.006841649386389730102
0.007270223430263990372
0.006913556216192365614
0.006472922633431121668
0.007654630734218601656
0.007974650483750737179
0.007654630734218607728
0.007325373190645852878
0.006913556216192378624
0.007270223430263985168
0.006841649386389723163
0.006472922633431122535
0.00605319886073099004
0.006490152141946047698
0.00605319886073099004
0.005601999383035358507
0.005601999383035358507
0.006053198860730992642
0.006490152141946051167
0.00605319886073099004
0.006472922633431118199
0.006841649386389725765
0.007270223430263986035
0.006913556216192369951
0.007325373190645851143
0.007654630734218605126
0.007974650483750737179
0.007654630734218605126
0.006472922633431121668
0.006913556216192368216
0.007270223430263989504
0.006841649386389729234
0.007192294430067552001
0.007437390611702196161
0.007932686970442545324
0.007695908893211145241
0.007635394672873425589
0.007773327366068854931
0.008272558003969381415
0.008136992852012017371
0.008599892939148551935
0.008709088508414217222
0.009053293483390770571
0.008944571750007689753
0.008144848823590032649
0.008399578196548797629
0.008758981211780890452
0.008510011374151476779
0.009051063383422887007
0.009245258881605059043
0.009436499431130241852
0.009245258881605059043
0.009355347228107621302
0.009372219271728658013
0.009570610315939028639
0.009553305301188879176
0.009669808549606216663
0.009679711047631047241
0.009690322245148298708
0.009679711047631048976
0.009355347228107612628
0.009553305301188882645
0.009570610315939032109
0.009372219271728659748
0.007192294430067554603
0.007695908893211146976
0.007932686970442538385
0.007437390611702182283
0.008144848823590023976
0.008510011374151478514
0.008758981211780895657
0.008399578196548797629
0.008599892939148551935
0.008944571750007689753
0.009053293483390765367
0.008709088508414212018
0.007635394672873419518
0.008136992852012020841
0.008272558003969390089
0.007773327366068854931
0.007773327366068855798